<?xml version="1.0" encoding="ISO-8859-1"?>
<modeling>
 <generator>
  <i name="program" type="string">vasp </i>
  <i name="version" type="string">5.4.4.18Apr17-6-g9f103f2a35  </i>
  <i name="subversion" type="string">(build Nov 20 2022 00:26:24) complex            parallel </i>
  <i name="platform" type="string">LinuxIFC </i>
  <i name="date" type="string">2023 09 06 </i>
  <i name="time" type="string">08:30:56 </i>
 </generator>
 <incar>
  <i type="string" name="SYSTEM"> Al_fcc</i>
  <i type="int" name="ISTART">     1</i>
  <i type="string" name="PREC">normal</i>
  <i type="int" name="ICHARG">    11</i>
  <i type="int" name="IBRION">     2</i>
  <i name="ENCUT">    240.00000000</i>
  <i type="int" name="NBANDS">    12</i>
  <i type="int" name="ISMEAR">     1</i>
  <i name="SIGMA">      0.20000000</i>
  <v type="int" name="KPOINT_BSE">    -1     0     0     0</v>
 </incar>
 <structure name="primitive_cell" >
  <crystal>
   <varray name="basis" >
    <v>       2.01946473       2.01946473      -0.00000000 </v>
    <v>       2.01946473       0.00000000      -2.01946473 </v>
    <v>       0.00000000       2.01946473      -2.01946473 </v>
   </varray>
   <i name="volume">     16.47171481 </i>
   <varray name="rec_basis" >
    <v>       0.24759036       0.24759036       0.24759036 </v>
    <v>       0.24759036      -0.24759036      -0.24759036 </v>
    <v>      -0.24759036       0.24759036      -0.24759036 </v>
   </varray>
  </crystal>
  <varray name="positions" >
   <v>       0.00000000       0.00000000       0.00000000 </v>
  </varray>
 </structure>
 <varray name="primitive_index" >
  <v type="int" >        1 </v>
 </varray>
 <kpoints>
  <generation param="listgenerated">
   <i name="divisions" type="int">      20 </i>
   <v>       0.50000000       0.00000000       0.50000000 </v>
   <v>       0.00000000       0.00000000       0.00000000 </v>
   <v>       0.50000000       0.50000000       0.50000000 </v>
   <v>       0.50000000       0.25000000       0.75000000 </v>
   <v>       0.37500000       0.37500000       0.75000000 </v>
   <v>       0.00000000       0.00000000       0.00000000 </v>
  </generation>
  <varray name="kpointlist" >
   <v>       0.50000000       0.00000000       0.50000000 </v>
   <v>       0.47368421       0.00000000       0.47368421 </v>
   <v>       0.44736842       0.00000000       0.44736842 </v>
   <v>       0.42105263       0.00000000       0.42105263 </v>
   <v>       0.39473684       0.00000000       0.39473684 </v>
   <v>       0.36842105       0.00000000       0.36842105 </v>
   <v>       0.34210526       0.00000000       0.34210526 </v>
   <v>       0.31578947       0.00000000       0.31578947 </v>
   <v>       0.28947368       0.00000000       0.28947368 </v>
   <v>       0.26315789       0.00000000       0.26315789 </v>
   <v>       0.23684211       0.00000000       0.23684211 </v>
   <v>       0.21052632       0.00000000       0.21052632 </v>
   <v>       0.18421053       0.00000000       0.18421053 </v>
   <v>       0.15789474       0.00000000       0.15789474 </v>
   <v>       0.13157895       0.00000000       0.13157895 </v>
   <v>       0.10526316       0.00000000       0.10526316 </v>
   <v>       0.07894737       0.00000000       0.07894737 </v>
   <v>       0.05263158       0.00000000       0.05263158 </v>
   <v>       0.02631579       0.00000000       0.02631579 </v>
   <v>       0.00000000       0.00000000       0.00000000 </v>
   <v>       0.00000000       0.00000000       0.00000000 </v>
   <v>       0.02631579       0.02631579       0.02631579 </v>
   <v>       0.05263158       0.05263158       0.05263158 </v>
   <v>       0.07894737       0.07894737       0.07894737 </v>
   <v>       0.10526316       0.10526316       0.10526316 </v>
   <v>       0.13157895       0.13157895       0.13157895 </v>
   <v>       0.15789474       0.15789474       0.15789474 </v>
   <v>       0.18421053       0.18421053       0.18421053 </v>
   <v>       0.21052632       0.21052632       0.21052632 </v>
   <v>       0.23684211       0.23684211       0.23684211 </v>
   <v>       0.26315789       0.26315789       0.26315789 </v>
   <v>       0.28947368       0.28947368       0.28947368 </v>
   <v>       0.31578947       0.31578947       0.31578947 </v>
   <v>       0.34210526       0.34210526       0.34210526 </v>
   <v>       0.36842105       0.36842105       0.36842105 </v>
   <v>       0.39473684       0.39473684       0.39473684 </v>
   <v>       0.42105263       0.42105263       0.42105263 </v>
   <v>       0.44736842       0.44736842       0.44736842 </v>
   <v>       0.47368421       0.47368421       0.47368421 </v>
   <v>       0.50000000       0.50000000       0.50000000 </v>
   <v>       0.50000000       0.50000000       0.50000000 </v>
   <v>       0.50000000       0.48684211       0.51315789 </v>
   <v>       0.50000000       0.47368421       0.52631579 </v>
   <v>       0.50000000       0.46052632       0.53947368 </v>
   <v>       0.50000000       0.44736842       0.55263158 </v>
   <v>       0.50000000       0.43421053       0.56578947 </v>
   <v>       0.50000000       0.42105263       0.57894737 </v>
   <v>       0.50000000       0.40789474       0.59210526 </v>
   <v>       0.50000000       0.39473684       0.60526316 </v>
   <v>       0.50000000       0.38157895       0.61842105 </v>
   <v>       0.50000000       0.36842105       0.63157895 </v>
   <v>       0.50000000       0.35526316       0.64473684 </v>
   <v>       0.50000000       0.34210526       0.65789474 </v>
   <v>       0.50000000       0.32894737       0.67105263 </v>
   <v>       0.50000000       0.31578947       0.68421053 </v>
   <v>       0.50000000       0.30263158       0.69736842 </v>
   <v>       0.50000000       0.28947368       0.71052632 </v>
   <v>       0.50000000       0.27631579       0.72368421 </v>
   <v>       0.50000000       0.26315789       0.73684211 </v>
   <v>       0.50000000       0.25000000       0.75000000 </v>
   <v>       0.50000000       0.25000000       0.75000000 </v>
   <v>       0.49342105       0.25657895       0.75000000 </v>
   <v>       0.48684211       0.26315789       0.75000000 </v>
   <v>       0.48026316       0.26973684       0.75000000 </v>
   <v>       0.47368421       0.27631579       0.75000000 </v>
   <v>       0.46710526       0.28289474       0.75000000 </v>
   <v>       0.46052632       0.28947368       0.75000000 </v>
   <v>       0.45394737       0.29605263       0.75000000 </v>
   <v>       0.44736842       0.30263158       0.75000000 </v>
   <v>       0.44078947       0.30921053       0.75000000 </v>
   <v>       0.43421053       0.31578947       0.75000000 </v>
   <v>       0.42763158       0.32236842       0.75000000 </v>
   <v>       0.42105263       0.32894737       0.75000000 </v>
   <v>       0.41447368       0.33552632       0.75000000 </v>
   <v>       0.40789474       0.34210526       0.75000000 </v>
   <v>       0.40131579       0.34868421       0.75000000 </v>
   <v>       0.39473684       0.35526316       0.75000000 </v>
   <v>       0.38815789       0.36184211       0.75000000 </v>
   <v>       0.38157895       0.36842105       0.75000000 </v>
   <v>       0.37500000       0.37500000       0.75000000 </v>
   <v>       0.37500000       0.37500000       0.75000000 </v>
   <v>       0.35526316       0.35526316       0.71052632 </v>
   <v>       0.33552632       0.33552632       0.67105263 </v>
   <v>       0.31578947       0.31578947       0.63157895 </v>
   <v>       0.29605263       0.29605263       0.59210526 </v>
   <v>       0.27631579       0.27631579       0.55263158 </v>
   <v>       0.25657895       0.25657895       0.51315789 </v>
   <v>       0.23684211       0.23684211       0.47368421 </v>
   <v>       0.21710526       0.21710526       0.43421053 </v>
   <v>       0.19736842       0.19736842       0.39473684 </v>
   <v>       0.17763158       0.17763158       0.35526316 </v>
   <v>       0.15789474       0.15789474       0.31578947 </v>
   <v>       0.13815789       0.13815789       0.27631579 </v>
   <v>       0.11842105       0.11842105       0.23684211 </v>
   <v>       0.09868421       0.09868421       0.19736842 </v>
   <v>       0.07894737       0.07894737       0.15789474 </v>
   <v>       0.05921053       0.05921053       0.11842105 </v>
   <v>       0.03947368       0.03947368       0.07894737 </v>
   <v>       0.01973684       0.01973684       0.03947368 </v>
   <v>       0.00000000       0.00000000       0.00000000 </v>
  </varray>
  <varray name="weights" >
   <v>       0.01000000 </v>
   <v>       0.01000000 </v>
   <v>       0.01000000 </v>
   <v>       0.01000000 </v>
   <v>       0.01000000 </v>
   <v>       0.01000000 </v>
   <v>       0.01000000 </v>
   <v>       0.01000000 </v>
   <v>       0.01000000 </v>
   <v>       0.01000000 </v>
   <v>       0.01000000 </v>
   <v>       0.01000000 </v>
   <v>       0.01000000 </v>
   <v>       0.01000000 </v>
   <v>       0.01000000 </v>
   <v>       0.01000000 </v>
   <v>       0.01000000 </v>
   <v>       0.01000000 </v>
   <v>       0.01000000 </v>
   <v>       0.01000000 </v>
   <v>       0.01000000 </v>
   <v>       0.01000000 </v>
   <v>       0.01000000 </v>
   <v>       0.01000000 </v>
   <v>       0.01000000 </v>
   <v>       0.01000000 </v>
   <v>       0.01000000 </v>
   <v>       0.01000000 </v>
   <v>       0.01000000 </v>
   <v>       0.01000000 </v>
   <v>       0.01000000 </v>
   <v>       0.01000000 </v>
   <v>       0.01000000 </v>
   <v>       0.01000000 </v>
   <v>       0.01000000 </v>
   <v>       0.01000000 </v>
   <v>       0.01000000 </v>
   <v>       0.01000000 </v>
   <v>       0.01000000 </v>
   <v>       0.01000000 </v>
   <v>       0.01000000 </v>
   <v>       0.01000000 </v>
   <v>       0.01000000 </v>
   <v>       0.01000000 </v>
   <v>       0.01000000 </v>
   <v>       0.01000000 </v>
   <v>       0.01000000 </v>
   <v>       0.01000000 </v>
   <v>       0.01000000 </v>
   <v>       0.01000000 </v>
   <v>       0.01000000 </v>
   <v>       0.01000000 </v>
   <v>       0.01000000 </v>
   <v>       0.01000000 </v>
   <v>       0.01000000 </v>
   <v>       0.01000000 </v>
   <v>       0.01000000 </v>
   <v>       0.01000000 </v>
   <v>       0.01000000 </v>
   <v>       0.01000000 </v>
   <v>       0.01000000 </v>
   <v>       0.01000000 </v>
   <v>       0.01000000 </v>
   <v>       0.01000000 </v>
   <v>       0.01000000 </v>
   <v>       0.01000000 </v>
   <v>       0.01000000 </v>
   <v>       0.01000000 </v>
   <v>       0.01000000 </v>
   <v>       0.01000000 </v>
   <v>       0.01000000 </v>
   <v>       0.01000000 </v>
   <v>       0.01000000 </v>
   <v>       0.01000000 </v>
   <v>       0.01000000 </v>
   <v>       0.01000000 </v>
   <v>       0.01000000 </v>
   <v>       0.01000000 </v>
   <v>       0.01000000 </v>
   <v>       0.01000000 </v>
   <v>       0.01000000 </v>
   <v>       0.01000000 </v>
   <v>       0.01000000 </v>
   <v>       0.01000000 </v>
   <v>       0.01000000 </v>
   <v>       0.01000000 </v>
   <v>       0.01000000 </v>
   <v>       0.01000000 </v>
   <v>       0.01000000 </v>
   <v>       0.01000000 </v>
   <v>       0.01000000 </v>
   <v>       0.01000000 </v>
   <v>       0.01000000 </v>
   <v>       0.01000000 </v>
   <v>       0.01000000 </v>
   <v>       0.01000000 </v>
   <v>       0.01000000 </v>
   <v>       0.01000000 </v>
   <v>       0.01000000 </v>
   <v>       0.01000000 </v>
  </varray>
 </kpoints>
 <parameters>
  <separator name="general" >
   <i type="string" name="SYSTEM">Al_fcc</i>
   <i type="logical" name="LCOMPAT"> F  </i>
  </separator>
  <separator name="electronic" >
   <i type="string" name="PREC">normal</i>
   <i name="ENMAX">    240.00000000</i>
   <i name="ENAUG">    291.05200000</i>
   <i name="EDIFF">      0.00010000</i>
   <i type="int" name="IALGO">    38</i>
   <i type="int" name="IWAVPR">    10</i>
   <i type="int" name="NBANDS">    32</i>
   <i name="NELECT">     12.00000000</i>
   <i type="int" name="TURBO">     0</i>
   <i type="int" name="IRESTART">     0</i>
   <i type="int" name="NREBOOT">     0</i>
   <i type="int" name="NMIN">     0</i>
   <i name="EREF">      0.00000000</i>
   <separator name="electronic smearing" >
    <i type="int" name="ISMEAR">     1</i>
    <i name="SIGMA">      0.20000000</i>
    <i name="KSPACING">      0.50000000</i>
    <i type="logical" name="KGAMMA"> T  </i>
   </separator>
   <separator name="electronic projectors" >
    <i type="logical" name="LREAL"> F  </i>
    <v name="ROPT">      0.00000000</v>
    <i type="int" name="LMAXPAW">  -100</i>
    <i type="int" name="LMAXMIX">     2</i>
    <i type="logical" name="NLSPLINE"> F  </i>
   </separator>
   <separator name="electronic startup" >
    <i type="int" name="ISTART">     0</i>
    <i type="int" name="ICHARG">    11</i>
    <i type="int" name="INIWAV">     1</i>
   </separator>
   <separator name="electronic spin" >
    <i type="int" name="ISPIN">     1</i>
    <i type="logical" name="LNONCOLLINEAR"> F  </i>
    <v name="MAGMOM">      1.00000000      1.00000000      1.00000000      1.00000000</v>
    <i name="NUPDOWN">     -1.00000000</i>
    <i type="logical" name="LSORBIT"> F  </i>
    <v name="SAXIS">      0.00000000      0.00000000      1.00000000</v>
    <i type="logical" name="LSPIRAL"> F  </i>
    <v name="QSPIRAL">      0.00000000      0.00000000      0.00000000</v>
    <i type="logical" name="LZEROZ"> F  </i>
   </separator>
   <separator name="electronic exchange-correlation" >
    <i type="logical" name="LASPH"> F  </i>
    <i type="logical" name="LMETAGGA"> F  </i>
   </separator>
   <separator name="electronic convergence" >
    <i type="int" name="NELM">    60</i>
    <i type="int" name="NELMDL">     0</i>
    <i type="int" name="NELMIN">     2</i>
    <i name="ENINI">    240.00000000</i>
    <separator name="electronic convergence detail" >
     <i type="logical" name="LDIAG"> T  </i>
     <i type="logical" name="LSUBROT"> F  </i>
     <i name="WEIMIN">      0.00000000</i>
     <i name="EBREAK">      0.00000078</i>
     <i name="DEPER">      0.30000000</i>
     <i type="int" name="NRMM">     4</i>
     <i name="TIME">      0.40000000</i>
    </separator>
   </separator>
   <separator name="electronic mixer" >
    <i name="AMIX">      0.40000000</i>
    <i name="BMIX">      1.00000000</i>
    <i name="AMIN">      0.10000000</i>
    <i name="AMIX_MAG">      1.60000000</i>
    <i name="BMIX_MAG">      1.00000000</i>
    <separator name="electronic mixer details" >
     <i type="int" name="IMIX">     4</i>
     <i type="logical" name="MIXFIRST"> F  </i>
     <i type="int" name="MAXMIX">   -45</i>
     <i name="WC">    100.00000000</i>
     <i type="int" name="INIMIX">     1</i>
     <i type="int" name="MIXPRE">     1</i>
     <i type="int" name="MREMOVE">     5</i>
    </separator>
   </separator>
   <separator name="electronic dipolcorrection" >
    <i type="logical" name="LDIPOL"> F  </i>
    <i type="logical" name="LMONO"> F  </i>
    <i type="int" name="IDIPOL">     0</i>
    <i name="EPSILON">      1.00000000</i>
    <v name="DIPOL">   -100.00000000   -100.00000000   -100.00000000</v>
    <i name="EFIELD">      0.00000000</i>
   </separator>
  </separator>
  <separator name="grids" >
   <i type="int" name="NGX">    16</i>
   <i type="int" name="NGY">    16</i>
   <i type="int" name="NGZ">    16</i>
   <i type="int" name="NGXF">    32</i>
   <i type="int" name="NGYF">    32</i>
   <i type="int" name="NGZF">    32</i>
   <i type="logical" name="ADDGRID"> F  </i>
  </separator>
  <separator name="ionic" >
   <i type="int" name="NSW">     0</i>
   <i type="int" name="IBRION">    -1</i>
   <i type="int" name="MDALGO">     0</i>
   <i type="int" name="ISIF">     2</i>
   <i name="PSTRESS">      0.00000000</i>
   <i name="EDIFFG">      0.00100000</i>
   <i type="int" name="NFREE">     1</i>
   <i name="POTIM">      0.50000000</i>
   <i name="SMASS">     -3.00000000</i>
   <i name="SCALEE">      1.00000000</i>
  </separator>
  <separator name="ionic md" >
   <i name="TEBEG">      0.00010000</i>
   <i name="TEEND">      0.00010000</i>
   <i type="int" name="NBLOCK">     1</i>
   <i type="int" name="KBLOCK">     1</i>
   <i type="int" name="NPACO">   256</i>
   <i name="APACO">     16.00000000</i>
  </separator>
  <separator name="symmetry" >
   <i type="int" name="ISYM">     2</i>
   <i name="SYMPREC">      0.00001000</i>
  </separator>
  <separator name="dos" >
   <i type="int" name="LORBIT">     0</i>
   <v name="RWIGS">     -1.00000000</v>
   <i type="int" name="NEDOS">   301</i>
   <i name="EMIN">     10.00000000</i>
   <i name="EMAX">    -10.00000000</i>
   <i name="EFERMI">      0.00000000</i>
  </separator>
  <separator name="writing" >
   <i type="int" name="NWRITE">     2</i>
   <i type="logical" name="LWAVE"> T  </i>
   <i type="logical" name="LDOWNSAMPLE"> F  </i>
   <i type="logical" name="LCHARG"> T  </i>
   <i type="logical" name="LPARD"> F  </i>
   <i type="logical" name="LVTOT"> F  </i>
   <i type="logical" name="LVHAR"> F  </i>
   <i type="logical" name="LELF"> F  </i>
   <i type="logical" name="LOPTICS"> F  </i>
   <v name="STM">      0.00000000      0.00000000      0.00000000      0.00000000      0.00000000      0.00000000      0.00000000</v>
  </separator>
  <separator name="performance" >
   <i type="int" name="NPAR">    32</i>
   <i type="int" name="NSIM">     4</i>
   <i type="int" name="NBLK">    -1</i>
   <i type="logical" name="LPLANE"> T  </i>
   <i type="logical" name="LSCALAPACK"> T  </i>
   <i type="logical" name="LSCAAWARE"> T  </i>
   <i type="logical" name="LSCALU"> F  </i>
   <i type="logical" name="LASYNC"> F  </i>
   <i type="logical" name="LORBITALREAL"> F  </i>
  </separator>
  <separator name="miscellaneous" >
   <i type="int" name="IDIOT">     3</i>
   <i type="int" name="ISPECIAL">     0</i>
   <i type="logical" name="LMUSIC"> F  </i>
   <v name="POMASS">     26.98100000</v>
   <v name="DARWINR">      0.00000000</v>
   <v name="DARWINV">      1.00000000</v>
   <i type="logical" name="LCORR"> T  </i>
  </separator>
  <i type="logical" name="GGA_COMPAT"> T  </i>
  <i type="logical" name="LBERRY"> F  </i>
  <i type="int" name="ICORELEVEL">     0</i>
  <i type="logical" name="LDAU"> F  </i>
  <i type="int" name="I_CONSTRAINED_M">     0</i>
  <separator name="electronic exchange-correlation" >
   <i type="string" name="GGA">--</i>
   <i type="int" name="VOSKOWN">     0</i>
   <i type="logical" name="LHFCALC"> F  </i>
   <i type="string" name="PRECFOCK"></i>
   <i type="logical" name="LSYMGRAD"> F  </i>
   <i type="logical" name="LHFONE"> F  </i>
   <i type="logical" name="LRHFCALC"> F  </i>
   <i type="logical" name="LTHOMAS"> F  </i>
   <i type="logical" name="LMODELHF"> F  </i>
   <i name="ENCUT4O">     -1.00000000</i>
   <i type="int" name="EXXOEP">     0</i>
   <i type="int" name="FOURORBIT">     0</i>
   <i name="AEXX">      0.00000000</i>
   <i name="HFALPHA">      0.00000000</i>
   <i name="MCALPHA">      0.00000000</i>
   <i name="ALDAX">      1.00000000</i>
   <i name="AGGAX">      1.00000000</i>
   <i name="ALDAC">      1.00000000</i>
   <i name="AGGAC">      1.00000000</i>
   <i type="int" name="NKREDX">     1</i>
   <i type="int" name="NKREDY">     1</i>
   <i type="int" name="NKREDZ">     1</i>
   <i type="logical" name="SHIFTRED"> F  </i>
   <i type="logical" name="ODDONLY"> F  </i>
   <i type="logical" name="EVENONLY"> F  </i>
   <i type="int" name="LMAXFOCK">     0</i>
   <i type="int" name="NMAXFOCKAE">     0</i>
   <i type="logical" name="LFOCKAEDFT"> F  </i>
   <i name="HFSCREEN">      0.00000000</i>
   <i name="HFSCREENC">      0.00000000</i>
   <i type="int" name="NBANDSGWLOW">     0</i>
  </separator>
  <separator name="vdW DFT" >
   <i type="logical" name="LUSE_VDW"> F  </i>
   <i name="Zab_VDW">     -0.84910000</i>
   <i name="PARAM1">      0.12340000</i>
   <i name="PARAM2">      1.00000000</i>
   <i name="PARAM3">      0.00000000</i>
  </separator>
  <separator name="model GW" >
   <i type="int" name="MODEL_GW">     0</i>
   <i name="MODEL_EPS0">      9.88302888</i>
   <i name="MODEL_ALPHA">      1.00000000</i>
  </separator>
  <separator name="linear response parameters" >
   <i type="logical" name="LEPSILON"> F  </i>
   <i type="logical" name="LRPA"> F  </i>
   <i type="logical" name="LNABLA"> F  </i>
   <i type="logical" name="LVEL"> F  </i>
   <i type="int" name="KINTER">     0</i>
   <i name="CSHIFT">      0.10000000</i>
   <i name="OMEGAMAX">     -1.00000000</i>
   <i name="DEG_THRESHOLD">      0.00200000</i>
   <i name="RTIME">     -0.10000000</i>
   <i name="WPLASMAI">      0.00000000</i>
   <v name="DFIELD">      0.00000000      0.00000000      0.00000000</v>
   <v name="WPLASMA">      0.00000000      0.00000000      0.00000000      0.00000000      0.00000000      0.00000000      0.00000000      0.00000000      0.00000000</v>
  </separator>
  <separator name="orbital magnetization" >
   <i type="logical" name="NUCIND"> F  </i>
   <v name="MAGPOS">      0.00000000      0.00000000      0.00000000</v>
   <i type="logical" name="LNICSALL"> T  </i>
   <i type="logical" name="ORBITALMAG"> F  </i>
   <i type="logical" name="LMAGBLOCH"> F  </i>
   <i type="logical" name="LCHIMAG"> F  </i>
   <i type="logical" name="LGAUGE"> T  </i>
   <i type="int" name="MAGATOM">     0</i>
   <v name="MAGDIPOL">      0.00000000      0.00000000      0.00000000</v>
   <v name="AVECCONST">      0.00000000      0.00000000      0.00000000</v>
  </separator>
  <separator name="response functions" >
   <i type="logical" name="LADDER"> F  </i>
   <i type="logical" name="LRPAFORCE"> F  </i>
   <i type="logical" name="LFXC"> F  </i>
   <i type="logical" name="LHARTREE"> T  </i>
   <i type="int" name="IBSE">     0</i>
   <v type="int" name="KPOINT">    -1     0     0     0</v>
   <i type="logical" name="LTCTE"> F  </i>
   <i type="logical" name="LTETE"> F  </i>
   <i type="logical" name="LTRIPLET"> F  </i>
   <i type="logical" name="LFXCEPS"> F  </i>
   <i type="logical" name="LFXHEG"> F  </i>
   <i type="int" name="NATURALO">     2</i>
   <i type="logical" name="L2ORDER"> F  </i>
   <i type="logical" name="LMP2LT"> F  </i>
   <i type="logical" name="LUSEW"> F  </i>
   <i name="ENCUTGW">     -2.00000000</i>
   <i name="ENCUTGWSOFT">     -2.00000000</i>
   <i name="ENCUTLF">     -1.00000000</i>
   <i type="int" name="LMAXMP2">    -1</i>
   <i name="SCISSOR">      0.00000000</i>
   <i type="int" name="NOMEGA">     0</i>
   <i type="int" name="NOMEGAR">     0</i>
   <i type="int" name="NBANDSGW">    -1</i>
   <i type="int" name="NBANDSO">    -1</i>
   <i type="int" name="NBANDSV">    -1</i>
   <i type="int" name="NELM">     1</i>
   <i type="int" name="NELMHF">     1</i>
   <i type="int" name="DIM">     3</i>
   <i type="int" name="ANTIRES">     0</i>
   <i name="OMEGAMAX">    -30.00000000</i>
   <i name="OMEGAMIN">    -30.00000000</i>
   <i name="OMEGATL">   -200.00000000</i>
   <i type="int" name="OMEGAGRID">   140</i>
   <i name="CSHIFT">     -0.10000000</i>
   <i type="logical" name="SELFENERGY"> F  </i>
   <i type="logical" name="LSPECTRAL"> F  </i>
   <i type="logical" name="LSPECTRALGW"> F  </i>
   <i type="logical" name="LSINGLES"> F  </i>
   <i type="logical" name="LFERMIGW"> F  </i>
   <i type="logical" name="ODDONLYGW"> F  </i>
   <i type="logical" name="EVENONLYGW"> F  </i>
   <i type="int" name="NKREDLFX">     1</i>
   <i type="int" name="NKREDLFY">     1</i>
   <i type="int" name="NKREDLFZ">     1</i>
   <i type="int" name="MAXMEM">  2800</i>
   <i type="int" name="TELESCOPE">     0</i>
   <i type="int" name="TAUPAR">     1</i>
   <i type="int" name="OMEGAPAR">    -1</i>
   <i name="LAMBDA">      1.00000000</i>
  </separator>
  <separator name="External order field" >
   <i name="OFIELD_KAPPA">      0.00000000</i>
   <v name="OFIELD_K">      0.00000000      0.00000000      0.00000000</v>
   <i name="OFIELD_Q6_NEAR">      0.00000000</i>
   <i name="OFIELD_Q6_FAR">      0.00000000</i>
   <i name="OFIELD_A">      0.00000000</i>
  </separator>
 </parameters>
 <atominfo>
  <atoms>       4 </atoms>
  <types>       1 </types>
  <array name="atoms" >
   <dimension dim="1">ion</dimension>
   <field type="string">element</field>
   <field type="int">atomtype</field>
   <set>
    <rc><c>Al</c><c>   1</c></rc>
    <rc><c>Al</c><c>   1</c></rc>
    <rc><c>Al</c><c>   1</c></rc>
    <rc><c>Al</c><c>   1</c></rc>
   </set>
  </array>
  <array name="atomtypes" >
   <dimension dim="1">type</dimension>
   <field type="int">atomspertype</field>
   <field type="string">element</field>
   <field>mass</field>
   <field>valence</field>
   <field type="string">pseudopotential</field>
   <set>
    <rc><c>   4</c><c>Al</c><c>     26.98100000</c><c>      3.00000000</c><c>  PAW_PBE Al 04Jan2001                  </c></rc>
   </set>
  </array>
 </atominfo>
 <structure name="initialpos" >
  <crystal>
   <varray name="basis" >
    <v>       4.03892946       0.00000000       0.00000000 </v>
    <v>       0.00000000       4.03892946       0.00000000 </v>
    <v>       0.00000000       0.00000000       4.03892946 </v>
   </varray>
   <i name="volume">     65.88685923 </i>
   <varray name="rec_basis" >
    <v>       0.24759036       0.00000000       0.00000000 </v>
    <v>       0.00000000       0.24759036       0.00000000 </v>
    <v>       0.00000000       0.00000000       0.24759036 </v>
   </varray>
  </crystal>
  <varray name="positions" >
   <v>       0.00000000       0.00000000       0.00000000 </v>
   <v>       0.00000000       0.50000000       0.50000000 </v>
   <v>       0.50000000       0.00000000       0.50000000 </v>
   <v>       0.50000000       0.50000000       0.00000000 </v>
  </varray>
 </structure>
 <calculation>
  <scstep>
   <time name="dav">    1.71    1.74</time>
   <time name="total">    1.73    1.79</time>
   <energy>
    <i name="alphaZ">     -0.81565519 </i>
    <i name="ewald">   -294.23110968 </i>
    <i name="hartreedc">     -0.42711168 </i>
    <i name="XCdc">   -104.51318328 </i>
    <i name="pawpsdc">    729.07564634 </i>
    <i name="pawaedc">   -601.32304262 </i>
    <i name="eentropy">     -0.00018215 </i>
    <i name="bandstr">     41.59617882 </i>
    <i name="atom">    214.14317381 </i>
    <i name="e_fr_energy">    -16.49528561 </i>
    <i name="e_wo_entrp">    -16.49510346 </i>
    <i name="e_0_energy">    -16.49522490 </i>
   </energy>
  </scstep>
  <scstep>
   <time name="dav">    3.23    3.27</time>
   <time name="total">    3.23    3.27</time>
   <energy>
    <i name="e_fr_energy">    -18.52821124 </i>
    <i name="e_wo_entrp">    -18.52640033 </i>
    <i name="e_0_energy">    -18.52760760 </i>
   </energy>
  </scstep>
  <scstep>
   <time name="dav">    1.40    1.40</time>
   <time name="total">    1.40    1.40</time>
   <energy>
    <i name="e_fr_energy">    -18.53140451 </i>
    <i name="e_wo_entrp">    -18.52959697 </i>
    <i name="e_0_energy">    -18.53080200 </i>
   </energy>
  </scstep>
  <scstep>
   <time name="dav">    5.32    5.35</time>
   <time name="total">    5.33    5.35</time>
   <energy>
    <i name="e_fr_energy">    -18.53140815 </i>
    <i name="e_wo_entrp">    -18.52960061 </i>
    <i name="e_0_energy">    -18.53080563 </i>
   </energy>
  </scstep>
  <scstep>
   <time name="dav">    1.55    1.57</time>
   <time name="total">    1.55    1.58</time>
   <energy>
    <i name="e_fr_energy">    -18.53140815 </i>
    <i name="e_wo_entrp">    -18.52960061 </i>
    <i name="e_0_energy">    -18.53080564 </i>
   </energy>
  </scstep>
  <scstep>
   <time name="dav">    5.49    5.84</time>
   <time name="total">    5.49    5.84</time>
   <energy>
    <i name="alphaZ">     -0.81565519 </i>
    <i name="ewald">   -294.23110968 </i>
    <i name="hartreedc">     -0.42711168 </i>
    <i name="XCdc">   -104.51318328 </i>
    <i name="pawpsdc">    729.07564634 </i>
    <i name="pawaedc">   -601.32304262 </i>
    <i name="eentropy">     -0.00180754 </i>
    <i name="bandstr">     39.56168167 </i>
    <i name="atom">    214.14317381 </i>
    <i name="e_fr_energy">    -18.53140815 </i>
    <i name="e_wo_entrp">    -18.52960062 </i>
    <i name="e_0_energy">    -18.53080564 </i>
   </energy>
  </scstep>
  <structure>
   <crystal>
    <varray name="basis" >
     <v>       4.03892946       0.00000000       0.00000000 </v>
     <v>       0.00000000       4.03892946       0.00000000 </v>
     <v>       0.00000000       0.00000000       4.03892946 </v>
    </varray>
    <i name="volume">     65.88685923 </i>
    <varray name="rec_basis" >
     <v>       0.24759036       0.00000000       0.00000000 </v>
     <v>       0.00000000       0.24759036       0.00000000 </v>
     <v>       0.00000000       0.00000000       0.24759036 </v>
    </varray>
   </crystal>
   <varray name="positions" >
    <v>       0.00000000       0.00000000       0.00000000 </v>
    <v>       0.00000000       0.50000000       0.50000000 </v>
    <v>       0.50000000       0.00000000       0.50000000 </v>
    <v>       0.50000000       0.50000000       0.00000000 </v>
   </varray>
  </structure>
  <varray name="forces" >
   <v>      -0.00000000      -0.00000000      -0.00000000 </v>
   <v>       0.00000000       0.00000000      -0.00000000 </v>
   <v>      -0.00000000       0.00000000      -0.00000000 </v>
   <v>       0.00000000       0.00000000       0.00000000 </v>
  </varray>
  <varray name="stress" >
   <v>     -30.19725976       0.00000000       0.00000000 </v>
   <v>      -0.00000000     -30.19725976       0.00000000 </v>
   <v>       0.00000000       0.00000000     -30.19725976 </v>
  </varray>
  <energy>
   <i name="e_fr_energy">    -18.53140815 </i>
   <i name="e_wo_entrp">    -18.53080564 </i>
   <i name="e_0_energy">     -0.00180754 </i>
  </energy>
  <time name="totalsc">   19.65   20.70</time>
  <eigenvalues>
   <array>
    <dimension dim="1">band</dimension>
    <dimension dim="2">kpoint</dimension>
    <dimension dim="3">spin</dimension>
    <field>eigene</field>
    <field>occ</field>
    <set>
     <set comment="spin 1">
      <set comment="kpoint 1">
       <r>    1.3429    1.0000 </r>
       <r>    1.3429    1.0000 </r>
       <r>    1.3429    1.0000 </r>
       <r>    1.3429    1.0000 </r>
       <r>    9.2701   -0.0000 </r>
       <r>    9.2701   -0.0000 </r>
       <r>    9.2701   -0.0000 </r>
       <r>    9.2701   -0.0000 </r>
       <r>   10.7886   -0.0000 </r>
       <r>   10.7886   -0.0000 </r>
       <r>   10.7886   -0.0000 </r>
       <r>   10.7886   -0.0000 </r>
       <r>   17.5352    0.0000 </r>
       <r>   17.5352    0.0000 </r>
       <r>   17.5352    0.0000 </r>
       <r>   17.5352    0.0000 </r>
       <r>   19.5126    0.0000 </r>
       <r>   19.5126    0.0000 </r>
       <r>   19.5126    0.0000 </r>
       <r>   19.5126    0.0000 </r>
       <r>   25.1233    0.0000 </r>
       <r>   25.1233    0.0000 </r>
       <r>   25.1233    0.0000 </r>
       <r>   25.1233    0.0000 </r>
       <r>   25.7505    0.0000 </r>
       <r>   25.7505    0.0000 </r>
       <r>   25.7505    0.0000 </r>
       <r>   25.7505    0.0000 </r>
       <r>   26.8490    0.0000 </r>
       <r>   26.8490    0.0000 </r>
       <r>   26.8490    0.0000 </r>
       <r>   26.8490    0.0000 </r>
      </set>
      <set comment="kpoint 2">
       <r>    0.8915    1.0000 </r>
       <r>    1.3551    1.0000 </r>
       <r>    1.3551    1.0000 </r>
       <r>    1.8171    1.0000 </r>
       <r>    8.8410   -0.0000 </r>
       <r>    9.2817   -0.0000 </r>
       <r>    9.2817   -0.0000 </r>
       <r>    9.7225   -0.0000 </r>
       <r>   10.3583   -0.0000 </r>
       <r>   10.7994   -0.0000 </r>
       <r>   10.7994   -0.0000 </r>
       <r>   11.2387   -0.0000 </r>
       <r>   17.1344    0.0000 </r>
       <r>   17.2262    0.0000 </r>
       <r>   17.2262    0.0000 </r>
       <r>   17.9571    0.0000 </r>
       <r>   19.0884    0.0000 </r>
       <r>   19.8374    0.0000 </r>
       <r>   19.8374    0.0000 </r>
       <r>   19.9544    0.0000 </r>
       <r>   24.6792    0.0000 </r>
       <r>   24.7881    0.0000 </r>
       <r>   24.7881    0.0000 </r>
       <r>   25.3982    0.0000 </r>
       <r>   25.5899    0.0000 </r>
       <r>   25.6087    0.0000 </r>
       <r>   25.6087    0.0000 </r>
       <r>   26.1227    0.0000 </r>
       <r>   26.4681    0.0000 </r>
       <r>   27.1942    0.0000 </r>
       <r>   27.1942    0.0000 </r>
       <r>   27.2491    0.0000 </r>
      </set>
      <set comment="kpoint 3">
       <r>    0.4628    1.0000 </r>
       <r>    1.3915    1.0000 </r>
       <r>    1.3915    1.0000 </r>
       <r>    2.3144    1.0000 </r>
       <r>    8.4355   -0.0000 </r>
       <r>    9.3163   -0.0000 </r>
       <r>    9.3163   -0.0000 </r>
       <r>    9.9488   -0.0000 </r>
       <r>   10.1982   -0.0000 </r>
       <r>   10.8317   -0.0000 </r>
       <r>   10.8317   -0.0000 </r>
       <r>   11.7079   -0.0000 </r>
       <r>   16.5853    0.0000 </r>
       <r>   16.5853    0.0000 </r>
       <r>   16.7550    0.0000 </r>
       <r>   18.3988    0.0000 </r>
       <r>   18.6827    0.0000 </r>
       <r>   20.4129    0.0000 </r>
       <r>   20.5211    0.0000 </r>
       <r>   20.5211    0.0000 </r>
       <r>   24.1142    0.0000 </r>
       <r>   24.1142    0.0000 </r>
       <r>   24.2579    0.0000 </r>
       <r>   25.0647    0.0000 </r>
       <r>   25.2356    0.0000 </r>
       <r>   25.2356    0.0000 </r>
       <r>   26.0784    0.0000 </r>
       <r>   26.1064    0.0000 </r>
       <r>   26.5141    0.0000 </r>
       <r>   27.6690    0.0000 </r>
       <r>   27.8873    0.0000 </r>
       <r>   27.8873    0.0000 </r>
      </set>
      <set comment="kpoint 4">
       <r>    0.0577    1.0000 </r>
       <r>    1.4521    1.0000 </r>
       <r>    1.4521    1.0000 </r>
       <r>    2.8332    1.0000 </r>
       <r>    8.0531   -0.0000 </r>
       <r>    9.3743   -0.0000 </r>
       <r>    9.3743   -0.0000 </r>
       <r>    9.5603   -0.0000 </r>
       <r>   10.6972   -0.0000 </r>
       <r>   10.8854   -0.0000 </r>
       <r>   10.8854   -0.0000 </r>
       <r>   12.1956   -0.0000 </r>
       <r>   15.8585    0.0000 </r>
       <r>   15.8585    0.0000 </r>
       <r>   16.3971    0.0000 </r>
       <r>   18.2960    0.0000 </r>
       <r>   18.8615    0.0000 </r>
       <r>   20.8871    0.0000 </r>
       <r>   21.3188    0.0000 </r>
       <r>   21.3188    0.0000 </r>
       <r>   23.3747    0.0000 </r>
       <r>   23.3747    0.0000 </r>
       <r>   23.8597    0.0000 </r>
       <r>   24.7458    0.0000 </r>
       <r>   24.7458    0.0000 </r>
       <r>   24.7534    0.0000 </r>
       <r>   25.7643    0.0000 </r>
       <r>   26.5886    0.0000 </r>
       <r>   26.9244    0.0000 </r>
       <r>   28.1063    0.0000 </r>
       <r>   28.2588    0.0000 </r>
       <r>   28.6700    0.0000 </r>
      </set>
      <set comment="kpoint 5">
       <r>   -0.3239    1.0000 </r>
       <r>    1.5370    1.0000 </r>
       <r>    1.5370    1.0000 </r>
       <r>    3.3738    1.0000 </r>
       <r>    7.6941   -0.0000 </r>
       <r>    9.1936   -0.0000 </r>
       <r>    9.4555   -0.0000 </r>
       <r>    9.4555   -0.0000 </r>
       <r>   10.9597   -0.0000 </r>
       <r>   10.9597   -0.0000 </r>
       <r>   11.2189   -0.0000 </r>
       <r>   12.7004    0.0000 </r>
       <r>   15.1146    0.0000 </r>
       <r>   15.1146    0.0000 </r>
       <r>   16.0609    0.0000 </r>
       <r>   17.9290    0.0000 </r>
       <r>   19.3391    0.0000 </r>
       <r>   21.3732    0.0000 </r>
       <r>   22.1369    0.0000 </r>
       <r>   22.1369    0.0000 </r>
       <r>   22.6223    0.0000 </r>
       <r>   22.6223    0.0000 </r>
       <r>   23.4693    0.0000 </r>
       <r>   24.2232    0.0000 </r>
       <r>   24.2232    0.0000 </r>
       <r>   24.4590    0.0000 </r>
       <r>   25.4390    0.0000 </r>
       <r>   27.1196    0.0000 </r>
       <r>   27.3529    0.0000 </r>
       <r>   27.8605    0.0000 </r>
       <r>   28.5613    0.0000 </r>
       <r>   28.7475    0.0000 </r>
      </set>
      <set comment="kpoint 6">
       <r>   -0.6818    1.0000 </r>
       <r>    1.6457    1.0000 </r>
       <r>    1.6457    1.0000 </r>
       <r>    3.9349    1.0000 </r>
       <r>    7.3582   -0.0043 </r>
       <r>    8.8493   -0.0000 </r>
       <r>    9.5597   -0.0000 </r>
       <r>    9.5597   -0.0000 </r>
       <r>   11.0531   -0.0000 </r>
       <r>   11.0531   -0.0000 </r>
       <r>   11.7642   -0.0000 </r>
       <r>   13.2224    0.0000 </r>
       <r>   14.3759    0.0000 </r>
       <r>   14.3759    0.0000 </r>
       <r>   15.7459    0.0000 </r>
       <r>   17.5804    0.0000 </r>
       <r>   19.8387    0.0000 </r>
       <r>   21.8663    0.0000 </r>
       <r>   21.8663    0.0000 </r>
       <r>   21.8748    0.0000 </r>
       <r>   22.8012    0.0000 </r>
       <r>   22.8012    0.0000 </r>
       <r>   23.1178    0.0000 </r>
       <r>   23.8521    0.0000 </r>
       <r>   23.8521    0.0000 </r>
       <r>   24.1925    0.0000 </r>
       <r>   25.1364    0.0000 </r>
       <r>   27.4767    0.0000 </r>
       <r>   27.6708    0.0000 </r>
       <r>   27.7922    0.0000 </r>
       <r>   27.9777    0.0000 </r>
       <r>   29.0307    0.0000 </r>
      </set>
      <set comment="kpoint 7">
       <r>   -1.0159    1.0000 </r>
       <r>    1.7787    1.0000 </r>
       <r>    1.7787    1.0000 </r>
       <r>    4.5172    1.0000 </r>
       <r>    7.0463    0.0720 </r>
       <r>    8.5283   -0.0000 </r>
       <r>    9.6873   -0.0000 </r>
       <r>    9.6873   -0.0000 </r>
       <r>   11.1632   -0.0000 </r>
       <r>   11.1632   -0.0000 </r>
       <r>   12.3324   -0.0000 </r>
       <r>   13.6536    0.0000 </r>
       <r>   13.6536    0.0000 </r>
       <r>   13.7599    0.0000 </r>
       <r>   15.4556    0.0000 </r>
       <r>   17.2534    0.0000 </r>
       <r>   20.3537    0.0000 </r>
       <r>   21.1329    0.0000 </r>
       <r>   21.1329    0.0000 </r>
       <r>   22.3872    0.0000 </r>
       <r>   22.6942    0.0000 </r>
       <r>   22.6942    0.0000 </r>
       <r>   22.7900    0.0000 </r>
       <r>   23.9507    0.0000 </r>
       <r>   24.2678    0.0000 </r>
       <r>   24.2678    0.0000 </r>
       <r>   24.8535    0.0000 </r>
       <r>   27.0928    0.0000 </r>
       <r>   27.1185    0.0000 </r>
       <r>   28.2529    0.0000 </r>
       <r>   28.2725    0.0000 </r>
       <r>   29.5295    0.0000 </r>
      </set>
      <set comment="kpoint 8">
       <r>   -1.3259    1.0000 </r>
       <r>    1.9358    1.0000 </r>
       <r>    1.9358    1.0000 </r>
       <r>    5.1177    1.0000 </r>
       <r>    6.7568    0.9972 </r>
       <r>    8.2317   -0.0000 </r>
       <r>    9.8384   -0.0000 </r>
       <r>    9.8384   -0.0000 </r>
       <r>   11.2822   -0.0000 </r>
       <r>   11.2822   -0.0000 </r>
       <r>   12.9235    0.0000 </r>
       <r>   12.9603    0.0000 </r>
       <r>   12.9603    0.0000 </r>
       <r>   14.3117    0.0000 </r>
       <r>   15.1843    0.0000 </r>
       <r>   16.9451    0.0000 </r>
       <r>   20.4200    0.0000 </r>
       <r>   20.4200    0.0000 </r>
       <r>   20.8793    0.0000 </r>
       <r>   22.1750    0.0000 </r>
       <r>   22.1750    0.0000 </r>
       <r>   22.4859    0.0000 </r>
       <r>   22.9082    0.0000 </r>
       <r>   23.7380    0.0000 </r>
       <r>   24.5901    0.0000 </r>
       <r>   25.1165    0.0000 </r>
       <r>   25.1165    0.0000 </r>
       <r>   26.1827    0.0000 </r>
       <r>   26.7142    0.0000 </r>
       <r>   28.7510    0.0000 </r>
       <r>   28.8416    0.0000 </r>
       <r>   30.0269    0.0000 </r>
      </set>
      <set comment="kpoint 9">
       <r>   -1.6117    1.0000 </r>
       <r>    2.1164    1.0000 </r>
       <r>    2.1164    1.0000 </r>
       <r>    5.7347    1.0000 </r>
       <r>    6.4909    1.0046 </r>
       <r>    7.9624   -0.0000 </r>
       <r>   10.0126   -0.0000 </r>
       <r>   10.0126   -0.0000 </r>
       <r>   11.3778   -0.0000 </r>
       <r>   11.3778   -0.0000 </r>
       <r>   12.3269   -0.0000 </r>
       <r>   12.3269   -0.0000 </r>
       <r>   13.5370    0.0000 </r>
       <r>   14.8765    0.0000 </r>
       <r>   14.9349    0.0000 </r>
       <r>   16.6588    0.0000 </r>
       <r>   19.7220    0.0000 </r>
       <r>   19.7220    0.0000 </r>
       <r>   21.4045    0.0000 </r>
       <r>   21.6031    0.0000 </r>
       <r>   21.6031    0.0000 </r>
       <r>   22.2058    0.0000 </r>
       <r>   23.4342    0.0000 </r>
       <r>   23.5646    0.0000 </r>
       <r>   24.3462    0.0000 </r>
       <r>   25.2258    0.0000 </r>
       <r>   26.0545    0.0000 </r>
       <r>   26.0545    0.0000 </r>
       <r>   26.3416    0.0000 </r>
       <r>   29.2435    0.0000 </r>
       <r>   29.4471    0.0000 </r>
       <r>   30.5432    0.0000 </r>
      </set>
      <set comment="kpoint 10">
       <r>   -1.8731    1.0000 </r>
       <r>    2.3204    1.0000 </r>
       <r>    2.3204    1.0000 </r>
       <r>    6.2483    1.0000 </r>
       <r>    6.3591    1.0002 </r>
       <r>    7.7287   -0.0000 </r>
       <r>   10.2099   -0.0000 </r>
       <r>   10.2099   -0.0000 </r>
       <r>   11.2582   -0.0000 </r>
       <r>   11.2582   -0.0000 </r>
       <r>   11.9468   -0.0000 </r>
       <r>   11.9468   -0.0000 </r>
       <r>   14.1729    0.0000 </r>
       <r>   14.7072    0.0000 </r>
       <r>   15.4532    0.0000 </r>
       <r>   16.3924    0.0000 </r>
       <r>   19.0434    0.0000 </r>
       <r>   19.0434    0.0000 </r>
       <r>   21.0268    0.0000 </r>
       <r>   21.0268    0.0000 </r>
       <r>   21.9012    0.0000 </r>
       <r>   21.9498    0.0000 </r>
       <r>   23.4575    0.0000 </r>
       <r>   23.9670    0.0000 </r>
       <r>   24.1228    0.0000 </r>
       <r>   24.2573    0.0000 </r>
       <r>   25.9768    0.0000 </r>
       <r>   26.9962    0.0000 </r>
       <r>   26.9962    0.0000 </r>
       <r>   29.7477    0.0000 </r>
       <r>   30.0675    0.0000 </r>
       <r>   31.0708    0.0000 </r>
      </set>
      <set comment="kpoint 11">
       <r>   -2.1101    1.0000 </r>
       <r>    2.5476    1.0000 </r>
       <r>    2.5476    1.0000 </r>
       <r>    6.0293    1.0000 </r>
       <r>    6.9369    0.4400 </r>
       <r>    7.5846   -0.0000 </r>
       <r>   10.4305   -0.0000 </r>
       <r>   10.4305   -0.0000 </r>
       <r>   10.7542   -0.0000 </r>
       <r>   10.7542   -0.0000 </r>
       <r>   11.9894   -0.0000 </r>
       <r>   11.9894   -0.0000 </r>
       <r>   14.5017    0.0000 </r>
       <r>   14.8267    0.0000 </r>
       <r>   16.0381    0.0000 </r>
       <r>   16.1464    0.0000 </r>
       <r>   18.3859    0.0000 </r>
       <r>   18.3859    0.0000 </r>
       <r>   20.4615    0.0000 </r>
       <r>   20.4615    0.0000 </r>
       <r>   21.7179    0.0000 </r>
       <r>   22.2928    0.0000 </r>
       <r>   23.2925    0.0000 </r>
       <r>   23.4918    0.0000 </r>
       <r>   23.9154    0.0000 </r>
       <r>   24.4741    0.0000 </r>
       <r>   25.6282    0.0000 </r>
       <r>   27.9460    0.0000 </r>
       <r>   27.9460    0.0000 </r>
       <r>   30.2682    0.0000 </r>
       <r>   30.7081    0.0000 </r>
       <r>   30.8808    0.0000 </r>
      </set>
      <set comment="kpoint 12">
       <r>   -2.3225    1.0000 </r>
       <r>    2.7976    1.0000 </r>
       <r>    2.7976    1.0000 </r>
       <r>    5.8329    1.0000 </r>
       <r>    7.1212   -0.0244 </r>
       <r>    7.8751   -0.0000 </r>
       <r>   10.1573   -0.0000 </r>
       <r>   10.1573   -0.0000 </r>
       <r>   10.6746   -0.0000 </r>
       <r>   10.6746   -0.0000 </r>
       <r>   12.1635   -0.0000 </r>
       <r>   12.1635   -0.0000 </r>
       <r>   14.3175    0.0000 </r>
       <r>   15.5040    0.0000 </r>
       <r>   15.9169    0.0000 </r>
       <r>   16.6305    0.0000 </r>
       <r>   17.7516    0.0000 </r>
       <r>   17.7516    0.0000 </r>
       <r>   19.9150    0.0000 </r>
       <r>   19.9150    0.0000 </r>
       <r>   21.5103    0.0000 </r>
       <r>   22.3366    0.0000 </r>
       <r>   22.4702    0.0000 </r>
       <r>   23.7265    0.0000 </r>
       <r>   23.7743    0.0000 </r>
       <r>   24.8600    0.0000 </r>
       <r>   25.3951    0.0000 </r>
       <r>   28.9088    0.0000 </r>
       <r>   28.9088    0.0000 </r>
       <r>   30.0092    0.0000 </r>
       <r>   30.7867    0.0000 </r>
       <r>   30.7959    0.0000 </r>
      </set>
      <set comment="kpoint 13">
       <r>   -2.5102    1.0000 </r>
       <r>    3.0696    1.0000 </r>
       <r>    3.0696    1.0000 </r>
       <r>    5.6596    1.0000 </r>
       <r>    6.9998    0.1989 </r>
       <r>    8.5119   -0.0000 </r>
       <r>    9.5587   -0.0000 </r>
       <r>    9.5587   -0.0000 </r>
       <r>   10.9416   -0.0000 </r>
       <r>   10.9416   -0.0000 </r>
       <r>   12.3737   -0.0000 </r>
       <r>   12.3737   -0.0000 </r>
       <r>   14.1550    0.0000 </r>
       <r>   15.7024    0.0000 </r>
       <r>   16.2005    0.0000 </r>
       <r>   17.1377    0.0000 </r>
       <r>   17.1377    0.0000 </r>
       <r>   17.2273    0.0000 </r>
       <r>   19.3909    0.0000 </r>
       <r>   19.3909    0.0000 </r>
       <r>   21.3269    0.0000 </r>
       <r>   21.4012    0.0000 </r>
       <r>   22.4757    0.0000 </r>
       <r>   23.5532    0.0000 </r>
       <r>   24.2596    0.0000 </r>
       <r>   24.7240    0.0000 </r>
       <r>   25.6643    0.0000 </r>
       <r>   29.1001    0.0000 </r>
       <r>   29.8475    0.0000 </r>
       <r>   29.8475    0.0000 </r>
       <r>   30.5463    0.0000 </r>
       <r>   31.3049    0.0000 </r>
      </set>
      <set comment="kpoint 14">
       <r>   -2.6732    1.0000 </r>
       <r>    3.3626    1.0000 </r>
       <r>    3.3626    1.0000 </r>
       <r>    5.5096    1.0000 </r>
       <r>    6.8577    0.7595 </r>
       <r>    8.9764   -0.0000 </r>
       <r>    8.9764   -0.0000 </r>
       <r>    9.2081   -0.0000 </r>
       <r>   11.2318   -0.0000 </r>
       <r>   11.2318   -0.0000 </r>
       <r>   12.6006    0.0000 </r>
       <r>   12.6006    0.0000 </r>
       <r>   14.0143    0.0000 </r>
       <r>   15.4980    0.0000 </r>
       <r>   16.5464    0.0000 </r>
       <r>   16.5464    0.0000 </r>
       <r>   16.9104    0.0000 </r>
       <r>   17.8210    0.0000 </r>
       <r>   18.8954    0.0000 </r>
       <r>   18.8954    0.0000 </r>
       <r>   20.4963    0.0000 </r>
       <r>   21.1667    0.0000 </r>
       <r>   22.4189    0.0000 </r>
       <r>   23.3913    0.0000 </r>
       <r>   24.3614    0.0000 </r>
       <r>   24.8278    0.0000 </r>
       <r>   26.1154    0.0000 </r>
       <r>   28.1720    0.0000 </r>
       <r>   30.3355    0.0000 </r>
       <r>   30.7584    0.0000 </r>
       <r>   30.7584    0.0000 </r>
       <r>   31.8151    0.0000 </r>
      </set>
      <set comment="kpoint 15">
       <r>   -2.8111    1.0000 </r>
       <r>    3.6752    1.0000 </r>
       <r>    3.6752    1.0000 </r>
       <r>    5.3826    1.0000 </r>
       <r>    6.7300    1.0209 </r>
       <r>    8.4168   -0.0000 </r>
       <r>    8.4168   -0.0000 </r>
       <r>    9.9262   -0.0000 </r>
       <r>   11.5451   -0.0000 </r>
       <r>   11.5451   -0.0000 </r>
       <r>   12.8345    0.0000 </r>
       <r>   12.8345    0.0000 </r>
       <r>   13.8953    0.0000 </r>
       <r>   15.2952    0.0000 </r>
       <r>   15.9780    0.0000 </r>
       <r>   15.9780    0.0000 </r>
       <r>   17.6374    0.0000 </r>
       <r>   18.4144    0.0000 </r>
       <r>   18.4353    0.0000 </r>
       <r>   18.4353    0.0000 </r>
       <r>   19.6358    0.0000 </r>
       <r>   21.0320    0.0000 </r>
       <r>   22.3493    0.0000 </r>
       <r>   23.2373    0.0000 </r>
       <r>   23.9675    0.0000 </r>
       <r>   25.4304    0.0000 </r>
       <r>   26.5569    0.0000 </r>
       <r>   27.2765    0.0000 </r>
       <r>   30.1858    0.0000 </r>
       <r>   31.6240    0.0000 </r>
       <r>   31.6240    0.0000 </r>
       <r>   32.3065    0.0000 </r>
      </set>
      <set comment="kpoint 16">
       <r>   -2.9240    1.0000 </r>
       <r>    4.0041    1.0000 </r>
       <r>    4.0041    1.0000 </r>
       <r>    5.2787    1.0000 </r>
       <r>    6.6231    1.0277 </r>
       <r>    7.8845   -0.0000 </r>
       <r>    7.8845   -0.0000 </r>
       <r>   10.6554   -0.0000 </r>
       <r>   11.8813   -0.0000 </r>
       <r>   11.8813   -0.0000 </r>
       <r>   13.0651    0.0000 </r>
       <r>   13.0651    0.0000 </r>
       <r>   13.7980    0.0000 </r>
       <r>   15.0787    0.0000 </r>
       <r>   15.4329    0.0000 </r>
       <r>   15.4329    0.0000 </r>
       <r>   18.0198    0.0000 </r>
       <r>   18.0198    0.0000 </r>
       <r>   18.3731    0.0000 </r>
       <r>   18.8408    0.0000 </r>
       <r>   19.0010    0.0000 </r>
       <r>   20.9242    0.0000 </r>
       <r>   22.2848    0.0000 </r>
       <r>   23.0788    0.0000 </r>
       <r>   23.5548    0.0000 </r>
       <r>   26.0607    0.0000 </r>
       <r>   26.4281    0.0000 </r>
       <r>   26.9588    0.0000 </r>
       <r>   30.1081    0.0000 </r>
       <r>   32.4046    0.0000 </r>
       <r>   32.4048    0.0000 </r>
       <r>   32.7508    0.0000 </r>
      </set>
      <set comment="kpoint 17">
       <r>   -3.0118    1.0000 </r>
       <r>    4.3432    1.0000 </r>
       <r>    4.3432    1.0000 </r>
       <r>    5.1980    1.0000 </r>
       <r>    6.5391    1.0103 </r>
       <r>    7.3856   -0.0025 </r>
       <r>    7.3856   -0.0025 </r>
       <r>   11.3875   -0.0000 </r>
       <r>   12.2399   -0.0000 </r>
       <r>   12.2399   -0.0000 </r>
       <r>   13.2792    0.0000 </r>
       <r>   13.2792    0.0000 </r>
       <r>   13.7224    0.0000 </r>
       <r>   14.8226    0.0000 </r>
       <r>   14.9117    0.0000 </r>
       <r>   14.9117    0.0000 </r>
       <r>   17.6603    0.0000 </r>
       <r>   17.6603    0.0000 </r>
       <r>   18.1450    0.0000 </r>
       <r>   19.1158    0.0000 </r>
       <r>   19.5695    0.0000 </r>
       <r>   20.8393    0.0000 </r>
       <r>   22.2315    0.0000 </r>
       <r>   22.8985    0.0000 </r>
       <r>   23.1328    0.0000 </r>
       <r>   25.6642    0.0000 </r>
       <r>   26.6660    0.0000 </r>
       <r>   27.2801    0.0000 </r>
       <r>   30.1129    0.0000 </r>
       <r>   32.8306    0.0000 </r>
       <r>   33.0397    0.0000 </r>
       <r>   33.0613    0.0000 </r>
      </set>
      <set comment="kpoint 18">
       <r>   -3.0746    1.0000 </r>
       <r>    4.6774    1.0000 </r>
       <r>    4.6774    1.0000 </r>
       <r>    5.1403    1.0000 </r>
       <r>    6.4787    1.0037 </r>
       <r>    6.9377    0.4364 </r>
       <r>    6.9377    0.4364 </r>
       <r>   12.1105   -0.0000 </r>
       <r>   12.6197    0.0000 </r>
       <r>   12.6197    0.0000 </r>
       <r>   13.4589    0.0000 </r>
       <r>   13.4589    0.0000 </r>
       <r>   13.6684    0.0000 </r>
       <r>   14.4157    0.0000 </r>
       <r>   14.4157    0.0000 </r>
       <r>   14.4905    0.0000 </r>
       <r>   17.3779    0.0000 </r>
       <r>   17.3779    0.0000 </r>
       <r>   17.5970    0.0000 </r>
       <r>   19.8225    0.0000 </r>
       <r>   20.0961    0.0000 </r>
       <r>   20.7780    0.0000 </r>
       <r>   22.1913    0.0000 </r>
       <r>   22.6556    0.0000 </r>
       <r>   22.7079    0.0000 </r>
       <r>   25.0436    0.0000 </r>
       <r>   27.1660    0.0000 </r>
       <r>   27.4962    0.0000 </r>
       <r>   30.1875    0.0000 </r>
       <r>   32.7576    0.0000 </r>
       <r>   33.1243    0.0000 </r>
       <r>   33.2955    0.0000 </r>
      </set>
      <set comment="kpoint 19">
       <r>   -3.1123    1.0000 </r>
       <r>    4.9647    1.0000 </r>
       <r>    4.9647    1.0000 </r>
       <r>    5.1057    1.0000 </r>
       <r>    6.4423    1.0018 </r>
       <r>    6.5823    1.0185 </r>
       <r>    6.5823    1.0185 </r>
       <r>   12.8025    0.0000 </r>
       <r>   13.0145    0.0000 </r>
       <r>   13.0145    0.0000 </r>
       <r>   13.5813    0.0000 </r>
       <r>   13.5813    0.0000 </r>
       <r>   13.6360    0.0000 </r>
       <r>   13.9513    0.0000 </r>
       <r>   13.9513    0.0000 </r>
       <r>   14.0530    0.0000 </r>
       <r>   17.1939    0.0000 </r>
       <r>   17.1939    0.0000 </r>
       <r>   17.2483    0.0000 </r>
       <r>   20.4352    0.0000 </r>
       <r>   20.5325    0.0000 </r>
       <r>   20.7412    0.0000 </r>
       <r>   22.1667    0.0000 </r>
       <r>   22.3339    0.0000 </r>
       <r>   22.3485    0.0000 </r>
       <r>   24.6432    0.0000 </r>
       <r>   27.5235    0.0000 </r>
       <r>   27.6180    0.0000 </r>
       <r>   30.2871    0.0000 </r>
       <r>   32.7146    0.0000 </r>
       <r>   32.8155    0.0000 </r>
       <r>   32.8583    0.0000 </r>
      </set>
      <set comment="kpoint 20">
       <r>   -3.1249    1.0000 </r>
       <r>    5.0941    1.0000 </r>
       <r>    5.0941    1.0000 </r>
       <r>    5.0941    1.0000 </r>
       <r>    6.4278    1.0013 </r>
       <r>    6.4278    1.0013 </r>
       <r>    6.4278    1.0013 </r>
       <r>   13.3143    0.0000 </r>
       <r>   13.3143    0.0000 </r>
       <r>   13.3143    0.0000 </r>
       <r>   13.6251    0.0000 </r>
       <r>   13.6251    0.0000 </r>
       <r>   13.6251    0.0000 </r>
       <r>   13.6251    0.0000 </r>
       <r>   13.6251    0.0000 </r>
       <r>   13.6251    0.0000 </r>
       <r>   17.1251    0.0000 </r>
       <r>   17.1251    0.0000 </r>
       <r>   17.1251    0.0000 </r>
       <r>   20.7289    0.0000 </r>
       <r>   20.7289    0.0000 </r>
       <r>   20.7289    0.0000 </r>
       <r>   22.1585    0.0000 </r>
       <r>   22.1585    0.0000 </r>
       <r>   22.1585    0.0000 </r>
       <r>   24.5077    0.0000 </r>
       <r>   27.6565    0.0000 </r>
       <r>   27.6565    0.0000 </r>
       <r>   30.3347    0.0000 </r>
       <r>   32.7003    0.0000 </r>
       <r>   32.7003    0.0000 </r>
       <r>   32.7004    0.0000 </r>
      </set>
      <set comment="kpoint 21">
       <r>   -3.1249    1.0000 </r>
       <r>    5.0941    1.0000 </r>
       <r>    5.0941    1.0000 </r>
       <r>    5.0941    1.0000 </r>
       <r>    6.4278    1.0013 </r>
       <r>    6.4278    1.0013 </r>
       <r>    6.4278    1.0013 </r>
       <r>   13.3143    0.0000 </r>
       <r>   13.3143    0.0000 </r>
       <r>   13.3143    0.0000 </r>
       <r>   13.6251    0.0000 </r>
       <r>   13.6251    0.0000 </r>
       <r>   13.6251    0.0000 </r>
       <r>   13.6251    0.0000 </r>
       <r>   13.6251    0.0000 </r>
       <r>   13.6251    0.0000 </r>
       <r>   17.1251    0.0000 </r>
       <r>   17.1251    0.0000 </r>
       <r>   17.1251    0.0000 </r>
       <r>   20.7289    0.0000 </r>
       <r>   20.7289    0.0000 </r>
       <r>   20.7289    0.0000 </r>
       <r>   22.1585    0.0000 </r>
       <r>   22.1585    0.0000 </r>
       <r>   22.1585    0.0000 </r>
       <r>   24.5077    0.0000 </r>
       <r>   27.6565    0.0000 </r>
       <r>   27.6565    0.0000 </r>
       <r>   30.3347    0.0000 </r>
       <r>   32.7003    0.0000 </r>
       <r>   32.7003    0.0000 </r>
       <r>   32.7004    0.0000 </r>
      </set>
      <set comment="kpoint 22">
       <r>   -3.1060    1.0000 </r>
       <r>    4.9704    1.0000 </r>
       <r>    4.9704    1.0000 </r>
       <r>    4.9704    1.0000 </r>
       <r>    6.5879    1.0197 </r>
       <r>    6.5879    1.0197 </r>
       <r>    6.5879    1.0197 </r>
       <r>   12.8082    0.0000 </r>
       <r>   12.8082    0.0000 </r>
       <r>   12.8082    0.0000 </r>
       <r>   13.6413    0.0000 </r>
       <r>   13.6413    0.0000 </r>
       <r>   13.6413    0.0000 </r>
       <r>   14.0585    0.0000 </r>
       <r>   14.0585    0.0000 </r>
       <r>   14.0585    0.0000 </r>
       <r>   17.2534    0.0000 </r>
       <r>   17.2534    0.0000 </r>
       <r>   17.2534    0.0000 </r>
       <r>   20.2317    0.0000 </r>
       <r>   20.6385    0.0000 </r>
       <r>   20.6385    0.0000 </r>
       <r>   22.2788    0.0000 </r>
       <r>   22.2788    0.0000 </r>
       <r>   22.4369    0.0000 </r>
       <r>   24.7134    0.0000 </r>
       <r>   27.5295    0.0000 </r>
       <r>   27.5295    0.0000 </r>
       <r>   30.2584    0.0000 </r>
       <r>   32.8034    0.0000 </r>
       <r>   32.8653    0.0000 </r>
       <r>   32.8654    0.0000 </r>
      </set>
      <set comment="kpoint 23">
       <r>   -3.0495    1.0000 </r>
       <r>    4.7008    1.0000 </r>
       <r>    4.7008    1.0000 </r>
       <r>    4.7008    1.0000 </r>
       <r>    6.9611    0.3405 </r>
       <r>    6.9611    0.3405 </r>
       <r>    6.9611    0.3405 </r>
       <r>   12.1337   -0.0000 </r>
       <r>   12.1337   -0.0000 </r>
       <r>   12.1337   -0.0000 </r>
       <r>   13.6898    0.0000 </r>
       <r>   13.6898    0.0000 </r>
       <r>   13.6898    0.0000 </r>
       <r>   14.5137    0.0000 </r>
       <r>   14.5137    0.0000 </r>
       <r>   14.5137    0.0000 </r>
       <r>   17.6189    0.0000 </r>
       <r>   17.6189    0.0000 </r>
       <r>   17.6189    0.0000 </r>
       <r>   19.2929    0.0000 </r>
       <r>   20.4283    0.0000 </r>
       <r>   20.4283    0.0000 </r>
       <r>   22.5778    0.0000 </r>
       <r>   22.5778    0.0000 </r>
       <r>   22.7311    0.0000 </r>
       <r>   25.3194    0.0000 </r>
       <r>   27.1913    0.0000 </r>
       <r>   27.1913    0.0000 </r>
       <r>   30.0482    0.0000 </r>
       <r>   33.0974    0.0000 </r>
       <r>   33.3052    0.0000 </r>
       <r>   33.3166    0.0000 </r>
      </set>
      <set comment="kpoint 24">
       <r>   -2.9553    1.0000 </r>
       <r>    4.3962    1.0000 </r>
       <r>    4.3962    1.0000 </r>
       <r>    4.3962    1.0000 </r>
       <r>    7.4380   -0.0008 </r>
       <r>    7.4380   -0.0008 </r>
       <r>    7.4380   -0.0008 </r>
       <r>   11.4401   -0.0000 </r>
       <r>   11.4401   -0.0000 </r>
       <r>   11.4401   -0.0000 </r>
       <r>   13.7706    0.0000 </r>
       <r>   13.7706    0.0000 </r>
       <r>   13.7706    0.0000 </r>
       <r>   14.8758    0.0000 </r>
       <r>   14.8758    0.0000 </r>
       <r>   14.8758    0.0000 </r>
       <r>   18.1941    0.0000 </r>
       <r>   18.1941    0.0000 </r>
       <r>   18.1941    0.0000 </r>
       <r>   18.2436    0.0000 </r>
       <r>   20.1790    0.0000 </r>
       <r>   20.1790    0.0000 </r>
       <r>   22.8289    0.0000 </r>
       <r>   22.9703    0.0000 </r>
       <r>   22.9703    0.0000 </r>
       <r>   26.1958    0.0000 </r>
       <r>   26.7117    0.0000 </r>
       <r>   26.7117    0.0000 </r>
       <r>   29.7396    0.0000 </r>
       <r>   32.7134    0.0000 </r>
       <r>   32.7134    0.0000 </r>
       <r>   32.7136    0.0000 </r>
      </set>
      <set comment="kpoint 25">
       <r>   -2.8236    1.0000 </r>
       <r>    4.0995    1.0000 </r>
       <r>    4.0995    1.0000 </r>
       <r>    4.0995    1.0000 </r>
       <r>    7.9762   -0.0000 </r>
       <r>    7.9762   -0.0000 </r>
       <r>    7.9762   -0.0000 </r>
       <r>   10.7507   -0.0000 </r>
       <r>   10.7507   -0.0000 </r>
       <r>   10.7507   -0.0000 </r>
       <r>   13.8840    0.0000 </r>
       <r>   13.8840    0.0000 </r>
       <r>   13.8840    0.0000 </r>
       <r>   15.1752    0.0000 </r>
       <r>   15.1752    0.0000 </r>
       <r>   15.1752    0.0000 </r>
       <r>   17.1735    0.0000 </r>
       <r>   18.9291    0.0000 </r>
       <r>   18.9291    0.0000 </r>
       <r>   18.9291    0.0000 </r>
       <r>   19.9269    0.0000 </r>
       <r>   19.9269    0.0000 </r>
       <r>   22.8197    0.0000 </r>
       <r>   23.4062    0.0000 </r>
       <r>   23.4062    0.0000 </r>
       <r>   26.1701    0.0000 </r>
       <r>   26.1701    0.0000 </r>
       <r>   27.1918    0.0000 </r>
       <r>   29.3632    0.0000 </r>
       <r>   31.9268    0.0000 </r>
       <r>   31.9268    0.0000 </r>
       <r>   31.9268    0.0000 </r>
      </set>
      <set comment="kpoint 26">
       <r>   -2.6542    1.0000 </r>
       <r>    3.8246    1.0000 </r>
       <r>    3.8246    1.0000 </r>
       <r>    3.8246    1.0000 </r>
       <r>    8.5517   -0.0000 </r>
       <r>    8.5517   -0.0000 </r>
       <r>    8.5517   -0.0000 </r>
       <r>   10.0820   -0.0000 </r>
       <r>   10.0820   -0.0000 </r>
       <r>   10.0820   -0.0000 </r>
       <r>   14.0298    0.0000 </r>
       <r>   14.0298    0.0000 </r>
       <r>   14.0298    0.0000 </r>
       <r>   15.4461    0.0000 </r>
       <r>   15.4461    0.0000 </r>
       <r>   15.4461    0.0000 </r>
       <r>   16.1067    0.0000 </r>
       <r>   19.6944    0.0000 </r>
       <r>   19.6944    0.0000 </r>
       <r>   19.7707    0.0000 </r>
       <r>   19.7707    0.0000 </r>
       <r>   19.7707    0.0000 </r>
       <r>   22.7615    0.0000 </r>
       <r>   23.8395    0.0000 </r>
       <r>   23.8395    0.0000 </r>
       <r>   25.6888    0.0000 </r>
       <r>   25.6888    0.0000 </r>
       <r>   28.2377    0.0000 </r>
       <r>   28.9413    0.0000 </r>
       <r>   31.0404    0.0000 </r>
       <r>   31.0404    0.0000 </r>
       <r>   31.0404    0.0000 </r>
      </set>
      <set comment="kpoint 27">
       <r>   -2.4476    1.0000 </r>
       <r>    3.5784    1.0000 </r>
       <r>    3.5784    1.0000 </r>
       <r>    3.5784    1.0000 </r>
       <r>    9.0748   -0.0000 </r>
       <r>    9.0748   -0.0000 </r>
       <r>    9.0748   -0.0000 </r>
       <r>    9.5257   -0.0000 </r>
       <r>    9.5257   -0.0000 </r>
       <r>    9.5257   -0.0000 </r>
       <r>   14.2081    0.0000 </r>
       <r>   14.2081    0.0000 </r>
       <r>   14.2081    0.0000 </r>
       <r>   15.0434    0.0000 </r>
       <r>   15.7147    0.0000 </r>
       <r>   15.7147    0.0000 </r>
       <r>   15.7147    0.0000 </r>
       <r>   19.4848    0.0000 </r>
       <r>   19.4848    0.0000 </r>
       <r>   20.6867    0.0000 </r>
       <r>   20.6867    0.0000 </r>
       <r>   20.6867    0.0000 </r>
       <r>   22.6800    0.0000 </r>
       <r>   24.1228    0.0000 </r>
       <r>   24.1228    0.0000 </r>
       <r>   25.3913    0.0000 </r>
       <r>   25.3913    0.0000 </r>
       <r>   28.4870    0.0000 </r>
       <r>   29.2717    0.0000 </r>
       <r>   30.1111    0.0000 </r>
       <r>   30.1111    0.0000 </r>
       <r>   30.1111    0.0000 </r>
      </set>
      <set comment="kpoint 28">
       <r>   -2.2039    1.0000 </r>
       <r>    3.3639    1.0000 </r>
       <r>    3.3639    1.0000 </r>
       <r>    3.3639    1.0000 </r>
       <r>    8.7174   -0.0000 </r>
       <r>    8.7174   -0.0000 </r>
       <r>    8.7174   -0.0000 </r>
       <r>    9.9108   -0.0000 </r>
       <r>    9.9108   -0.0000 </r>
       <r>    9.9108   -0.0000 </r>
       <r>   13.9948    0.0000 </r>
       <r>   14.4187    0.0000 </r>
       <r>   14.4187    0.0000 </r>
       <r>   14.4187    0.0000 </r>
       <r>   15.9952    0.0000 </r>
       <r>   15.9952    0.0000 </r>
       <r>   15.9952    0.0000 </r>
       <r>   19.2946    0.0000 </r>
       <r>   19.2946    0.0000 </r>
       <r>   21.6529    0.0000 </r>
       <r>   21.6529    0.0000 </r>
       <r>   21.6529    0.0000 </r>
       <r>   22.5899    0.0000 </r>
       <r>   23.9716    0.0000 </r>
       <r>   23.9716    0.0000 </r>
       <r>   25.5567    0.0000 </r>
       <r>   25.5567    0.0000 </r>
       <r>   28.0135    0.0000 </r>
       <r>   29.1616    0.0000 </r>
       <r>   29.1616    0.0000 </r>
       <r>   29.1616    0.0000 </r>
       <r>   30.2831    0.0000 </r>
      </set>
      <set comment="kpoint 29">
       <r>   -1.9231    1.0000 </r>
       <r>    3.1828    1.0000 </r>
       <r>    3.1828    1.0000 </r>
       <r>    3.1828    1.0000 </r>
       <r>    8.1259   -0.0000 </r>
       <r>    8.1259   -0.0000 </r>
       <r>    8.1259   -0.0000 </r>
       <r>   10.5922   -0.0000 </r>
       <r>   10.5922   -0.0000 </r>
       <r>   10.5922   -0.0000 </r>
       <r>   12.9695    0.0000 </r>
       <r>   14.6622    0.0000 </r>
       <r>   14.6622    0.0000 </r>
       <r>   14.6622    0.0000 </r>
       <r>   16.2968    0.0000 </r>
       <r>   16.2968    0.0000 </r>
       <r>   16.2968    0.0000 </r>
       <r>   19.1407    0.0000 </r>
       <r>   19.1407    0.0000 </r>
       <r>   22.5100    0.0000 </r>
       <r>   22.6561    0.0000 </r>
       <r>   22.6561    0.0000 </r>
       <r>   22.6561    0.0000 </r>
       <r>   23.5567    0.0000 </r>
       <r>   23.5567    0.0000 </r>
       <r>   26.0562    0.0000 </r>
       <r>   26.0562    0.0000 </r>
       <r>   27.5342    0.0000 </r>
       <r>   28.2230    0.0000 </r>
       <r>   28.2230    0.0000 </r>
       <r>   28.2230    0.0000 </r>
       <r>   30.9213    0.0000 </r>
      </set>
      <set comment="kpoint 30">
       <r>   -1.6054    1.0000 </r>
       <r>    3.0358    1.0000 </r>
       <r>    3.0358    1.0000 </r>
       <r>    3.0358    1.0000 </r>
       <r>    7.5498   -0.0000 </r>
       <r>    7.5498   -0.0000 </r>
       <r>    7.5498   -0.0000 </r>
       <r>   11.3187   -0.0000 </r>
       <r>   11.3187   -0.0000 </r>
       <r>   11.3187   -0.0000 </r>
       <r>   11.9679   -0.0000 </r>
       <r>   14.9380    0.0000 </r>
       <r>   14.9380    0.0000 </r>
       <r>   14.9380    0.0000 </r>
       <r>   16.6223    0.0000 </r>
       <r>   16.6223    0.0000 </r>
       <r>   16.6223    0.0000 </r>
       <r>   19.0223    0.0000 </r>
       <r>   19.0223    0.0000 </r>
       <r>   22.4441    0.0000 </r>
       <r>   23.0849    0.0000 </r>
       <r>   23.0849    0.0000 </r>
       <r>   23.6788    0.0000 </r>
       <r>   23.6788    0.0000 </r>
       <r>   23.6788    0.0000 </r>
       <r>   26.6927    0.0000 </r>
       <r>   26.6927    0.0000 </r>
       <r>   27.0552    0.0000 </r>
       <r>   27.2955    0.0000 </r>
       <r>   27.2955    0.0000 </r>
       <r>   27.2955    0.0000 </r>
       <r>   30.1393    0.0000 </r>
      </set>
      <set comment="kpoint 31">
       <r>   -1.2514    1.0000 </r>
       <r>    2.9240    1.0000 </r>
       <r>    2.9240    1.0000 </r>
       <r>    2.9240    1.0000 </r>
       <r>    7.0014    0.1938 </r>
       <r>    7.0014    0.1938 </r>
       <r>    7.0014    0.1938 </r>
       <r>   10.9920   -0.0000 </r>
       <r>   12.0817   -0.0000 </r>
       <r>   12.0817   -0.0000 </r>
       <r>   12.0817   -0.0000 </r>
       <r>   15.2456    0.0000 </r>
       <r>   15.2456    0.0000 </r>
       <r>   15.2456    0.0000 </r>
       <r>   16.9749    0.0000 </r>
       <r>   16.9749    0.0000 </r>
       <r>   16.9749    0.0000 </r>
       <r>   18.9278    0.0000 </r>
       <r>   18.9278    0.0000 </r>
       <r>   22.3974    0.0000 </r>
       <r>   22.6088    0.0000 </r>
       <r>   22.6088    0.0000 </r>
       <r>   24.7018    0.0000 </r>
       <r>   24.7018    0.0000 </r>
       <r>   24.7018    0.0000 </r>
       <r>   26.3770    0.0000 </r>
       <r>   26.3770    0.0000 </r>
       <r>   26.3770    0.0000 </r>
       <r>   26.5832    0.0000 </r>
       <r>   27.3650    0.0000 </r>
       <r>   27.3650    0.0000 </r>
       <r>   29.3818    0.0000 </r>
      </set>
      <set comment="kpoint 32">
       <r>   -0.8610    1.0000 </r>
       <r>    2.8475    1.0000 </r>
       <r>    2.8475    1.0000 </r>
       <r>    2.8475    1.0000 </r>
       <r>    6.4833    1.0040 </r>
       <r>    6.4833    1.0040 </r>
       <r>    6.4833    1.0040 </r>
       <r>   10.0432   -0.0000 </r>
       <r>   12.8764    0.0000 </r>
       <r>   12.8764    0.0000 </r>
       <r>   12.8764    0.0000 </r>
       <r>   15.5870    0.0000 </r>
       <r>   15.5870    0.0000 </r>
       <r>   15.5870    0.0000 </r>
       <r>   17.3518    0.0000 </r>
       <r>   17.3518    0.0000 </r>
       <r>   17.3518    0.0000 </r>
       <r>   18.8643    0.0000 </r>
       <r>   18.8643    0.0000 </r>
       <r>   22.1496    0.0000 </r>
       <r>   22.1496    0.0000 </r>
       <r>   22.3740    0.0000 </r>
       <r>   25.4959    0.0000 </r>
       <r>   25.4959    0.0000 </r>
       <r>   25.4959    0.0000 </r>
       <r>   25.6636    0.0000 </r>
       <r>   25.6636    0.0000 </r>
       <r>   25.6636    0.0000 </r>
       <r>   26.1236    0.0000 </r>
       <r>   28.0754    0.0000 </r>
       <r>   28.0754    0.0000 </r>
       <r>   28.7092    0.0000 </r>
      </set>
      <set comment="kpoint 33">
       <r>   -0.4348    1.0000 </r>
       <r>    2.8066    1.0000 </r>
       <r>    2.8066    1.0000 </r>
       <r>    2.8066    1.0000 </r>
       <r>    5.9971    1.0000 </r>
       <r>    5.9971    1.0000 </r>
       <r>    5.9971    1.0000 </r>
       <r>    9.1229   -0.0000 </r>
       <r>   13.7004    0.0000 </r>
       <r>   13.7004    0.0000 </r>
       <r>   13.7004    0.0000 </r>
       <r>   15.9613    0.0000 </r>
       <r>   15.9613    0.0000 </r>
       <r>   15.9613    0.0000 </r>
       <r>   17.7521    0.0000 </r>
       <r>   17.7521    0.0000 </r>
       <r>   17.7521    0.0000 </r>
       <r>   18.8321    0.0000 </r>
       <r>   18.8321    0.0000 </r>
       <r>   21.7143    0.0000 </r>
       <r>   21.7143    0.0000 </r>
       <r>   22.3770    0.0000 </r>
       <r>   24.6412    0.0000 </r>
       <r>   24.6412    0.0000 </r>
       <r>   24.6412    0.0000 </r>
       <r>   25.6808    0.0000 </r>
       <r>   26.3482    0.0000 </r>
       <r>   26.3482    0.0000 </r>
       <r>   26.3482    0.0000 </r>
       <r>   28.3290    0.0000 </r>
       <r>   28.3290    0.0000 </r>
       <r>   28.3290    0.0000 </r>
      </set>
      <set comment="kpoint 34">
       <r>    0.0271    1.0000 </r>
       <r>    2.8016    1.0000 </r>
       <r>    2.8016    1.0000 </r>
       <r>    2.8016    1.0000 </r>
       <r>    5.5440    1.0000 </r>
       <r>    5.5440    1.0000 </r>
       <r>    5.5440    1.0000 </r>
       <r>    8.2318   -0.0000 </r>
       <r>   14.5510    0.0000 </r>
       <r>   14.5510    0.0000 </r>
       <r>   14.5510    0.0000 </r>
       <r>   16.3674    0.0000 </r>
       <r>   16.3674    0.0000 </r>
       <r>   16.3674    0.0000 </r>
       <r>   18.1712    0.0000 </r>
       <r>   18.1712    0.0000 </r>
       <r>   18.1712    0.0000 </r>
       <r>   18.8314    0.0000 </r>
       <r>   18.8314    0.0000 </r>
       <r>   21.3064    0.0000 </r>
       <r>   21.3064    0.0000 </r>
       <r>   22.4086    0.0000 </r>
       <r>   23.8119    0.0000 </r>
       <r>   23.8119    0.0000 </r>
       <r>   23.8119    0.0000 </r>
       <r>   25.2584    0.0000 </r>
       <r>   26.3008    0.0000 </r>
       <r>   26.3008    0.0000 </r>
       <r>   26.3008    0.0000 </r>
       <r>   28.2026    0.0000 </r>
       <r>   28.2026    0.0000 </r>
       <r>   28.2026    0.0000 </r>
      </set>
      <set comment="kpoint 35">
       <r>    0.5244    1.0000 </r>
       <r>    2.8320    1.0000 </r>
       <r>    2.8320    1.0000 </r>
       <r>    2.8320    1.0000 </r>
       <r>    5.1244    1.0000 </r>
       <r>    5.1244    1.0000 </r>
       <r>    5.1244    1.0000 </r>
       <r>    7.3709   -0.0034 </r>
       <r>   15.4237    0.0000 </r>
       <r>   15.4237    0.0000 </r>
       <r>   15.4237    0.0000 </r>
       <r>   16.8049    0.0000 </r>
       <r>   16.8049    0.0000 </r>
       <r>   16.8049    0.0000 </r>
       <r>   18.6005    0.0000 </r>
       <r>   18.6005    0.0000 </r>
       <r>   18.6005    0.0000 </r>
       <r>   18.8624    0.0000 </r>
       <r>   18.8624    0.0000 </r>
       <r>   20.9276    0.0000 </r>
       <r>   20.9276    0.0000 </r>
       <r>   22.4702    0.0000 </r>
       <r>   23.0063    0.0000 </r>
       <r>   23.0063    0.0000 </r>
       <r>   23.0063    0.0000 </r>
       <r>   24.8594    0.0000 </r>
       <r>   25.7716    0.0000 </r>
       <r>   25.7716    0.0000 </r>
       <r>   25.7716    0.0000 </r>
       <r>   27.0558    0.0000 </r>
       <r>   27.0558    0.0000 </r>
       <r>   27.0558    0.0000 </r>
      </set>
      <set comment="kpoint 36">
       <r>    1.0565    1.0000 </r>
       <r>    2.8981    1.0000 </r>
       <r>    2.8981    1.0000 </r>
       <r>    2.8981    1.0000 </r>
       <r>    4.7393    1.0000 </r>
       <r>    4.7393    1.0000 </r>
       <r>    4.7393    1.0000 </r>
       <r>    6.5408    1.0106 </r>
       <r>   16.3125    0.0000 </r>
       <r>   16.3125    0.0000 </r>
       <r>   16.3125    0.0000 </r>
       <r>   17.2775    0.0000 </r>
       <r>   17.2775    0.0000 </r>
       <r>   17.2775    0.0000 </r>
       <r>   18.9251    0.0000 </r>
       <r>   18.9251    0.0000 </r>
       <r>   19.0279    0.0000 </r>
       <r>   19.0279    0.0000 </r>
       <r>   19.0279    0.0000 </r>
       <r>   20.5793    0.0000 </r>
       <r>   20.5793    0.0000 </r>
       <r>   22.2412    0.0000 </r>
       <r>   22.2412    0.0000 </r>
       <r>   22.2412    0.0000 </r>
       <r>   22.5629    0.0000 </r>
       <r>   24.4865    0.0000 </r>
       <r>   25.1467    0.0000 </r>
       <r>   25.1467    0.0000 </r>
       <r>   25.1467    0.0000 </r>
       <r>   25.9335    0.0000 </r>
       <r>   25.9335    0.0000 </r>
       <r>   25.9335    0.0000 </r>
      </set>
      <set comment="kpoint 37">
       <r>    1.6230    1.0000 </r>
       <r>    2.9992    1.0000 </r>
       <r>    2.9992    1.0000 </r>
       <r>    2.9992    1.0000 </r>
       <r>    4.3893    1.0000 </r>
       <r>    4.3893    1.0000 </r>
       <r>    4.3893    1.0000 </r>
       <r>    5.7419    1.0000 </r>
       <r>   17.2029    0.0000 </r>
       <r>   17.2029    0.0000 </r>
       <r>   17.2029    0.0000 </r>
       <r>   17.7830    0.0000 </r>
       <r>   17.7830    0.0000 </r>
       <r>   17.7830    0.0000 </r>
       <r>   19.0196    0.0000 </r>
       <r>   19.0196    0.0000 </r>
       <r>   19.4217    0.0000 </r>
       <r>   19.4217    0.0000 </r>
       <r>   19.4217    0.0000 </r>
       <r>   20.2621    0.0000 </r>
       <r>   20.2621    0.0000 </r>
       <r>   21.5075    0.0000 </r>
       <r>   21.5075    0.0000 </r>
       <r>   21.5075    0.0000 </r>
       <r>   22.6866    0.0000 </r>
       <r>   24.1406    0.0000 </r>
       <r>   24.5295    0.0000 </r>
       <r>   24.5295    0.0000 </r>
       <r>   24.5295    0.0000 </r>
       <r>   24.8915    0.0000 </r>
       <r>   24.8915    0.0000 </r>
       <r>   24.8915    0.0000 </r>
      </set>
      <set comment="kpoint 38">
       <r>    2.2231    1.0000 </r>
       <r>    3.1345    1.0000 </r>
       <r>    3.1345    1.0000 </r>
       <r>    3.1345    1.0000 </r>
       <r>    4.0772    1.0000 </r>
       <r>    4.0772    1.0000 </r>
       <r>    4.0772    1.0000 </r>
       <r>    4.9760    1.0000 </r>
       <r>   18.0741    0.0000 </r>
       <r>   18.0741    0.0000 </r>
       <r>   18.0741    0.0000 </r>
       <r>   18.3217    0.0000 </r>
       <r>   18.3217    0.0000 </r>
       <r>   18.3217    0.0000 </r>
       <r>   19.1457    0.0000 </r>
       <r>   19.1457    0.0000 </r>
       <r>   19.7188    0.0000 </r>
       <r>   19.7188    0.0000 </r>
       <r>   19.7188    0.0000 </r>
       <r>   19.9767    0.0000 </r>
       <r>   19.9767    0.0000 </r>
       <r>   20.8068    0.0000 </r>
       <r>   20.8068    0.0000 </r>
       <r>   20.8068    0.0000 </r>
       <r>   22.8414    0.0000 </r>
       <r>   23.8270    0.0000 </r>
       <r>   23.9617    0.0000 </r>
       <r>   23.9617    0.0000 </r>
       <r>   23.9617    0.0000 </r>
       <r>   24.0202    0.0000 </r>
       <r>   24.0202    0.0000 </r>
       <r>   24.0202    0.0000 </r>
      </set>
      <set comment="kpoint 39">
       <r>    2.8560    1.0000 </r>
       <r>    3.2973    1.0000 </r>
       <r>    3.2973    1.0000 </r>
       <r>    3.2973    1.0000 </r>
       <r>    3.8077    1.0000 </r>
       <r>    3.8077    1.0000 </r>
       <r>    3.8077    1.0000 </r>
       <r>    4.2466    1.0000 </r>
       <r>   18.8741    0.0000 </r>
       <r>   18.8741    0.0000 </r>
       <r>   18.8741    0.0000 </r>
       <r>   18.8925    0.0000 </r>
       <r>   18.8925    0.0000 </r>
       <r>   18.8925    0.0000 </r>
       <r>   19.3028    0.0000 </r>
       <r>   19.3028    0.0000 </r>
       <r>   19.7268    0.0000 </r>
       <r>   19.7268    0.0000 </r>
       <r>   19.7918    0.0000 </r>
       <r>   19.7918    0.0000 </r>
       <r>   19.7918    0.0000 </r>
       <r>   20.1378    0.0000 </r>
       <r>   20.1378    0.0000 </r>
       <r>   20.1378    0.0000 </r>
       <r>   23.0281    0.0000 </r>
       <r>   23.3781    0.0000 </r>
       <r>   23.3781    0.0000 </r>
       <r>   23.3781    0.0000 </r>
       <r>   23.5607    0.0000 </r>
       <r>   23.5658    0.0000 </r>
       <r>   23.5658    0.0000 </r>
       <r>   23.5658    0.0000 </r>
      </set>
      <set comment="kpoint 40">
       <r>    3.4218    1.0000 </r>
       <r>    3.4218    1.0000 </r>
       <r>    3.4218    1.0000 </r>
       <r>    3.4218    1.0000 </r>
       <r>    3.6475    1.0000 </r>
       <r>    3.6475    1.0000 </r>
       <r>    3.6475    1.0000 </r>
       <r>    3.6475    1.0000 </r>
       <r>   19.4528    0.0000 </r>
       <r>   19.4528    0.0000 </r>
       <r>   19.4528    0.0000 </r>
       <r>   19.4528    0.0000 </r>
       <r>   19.4528    0.0000 </r>
       <r>   19.4528    0.0000 </r>
       <r>   19.4528    0.0000 </r>
       <r>   19.4528    0.0000 </r>
       <r>   19.5447    0.0000 </r>
       <r>   19.5447    0.0000 </r>
       <r>   19.5447    0.0000 </r>
       <r>   19.5447    0.0000 </r>
       <r>   19.5447    0.0000 </r>
       <r>   19.5447    0.0000 </r>
       <r>   19.5447    0.0000 </r>
       <r>   19.5447    0.0000 </r>
       <r>   23.1621    0.0000 </r>
       <r>   23.1621    0.0000 </r>
       <r>   23.1621    0.0000 </r>
       <r>   23.1621    0.0000 </r>
       <r>   23.3948    0.0000 </r>
       <r>   23.3948    0.0000 </r>
       <r>   23.3948    0.0000 </r>
       <r>   23.3948    0.0000 </r>
      </set>
      <set comment="kpoint 41">
       <r>    3.4218    1.0000 </r>
       <r>    3.4218    1.0000 </r>
       <r>    3.4218    1.0000 </r>
       <r>    3.4218    1.0000 </r>
       <r>    3.6475    1.0000 </r>
       <r>    3.6475    1.0000 </r>
       <r>    3.6475    1.0000 </r>
       <r>    3.6475    1.0000 </r>
       <r>   19.4528    0.0000 </r>
       <r>   19.4528    0.0000 </r>
       <r>   19.4528    0.0000 </r>
       <r>   19.4528    0.0000 </r>
       <r>   19.4528    0.0000 </r>
       <r>   19.4528    0.0000 </r>
       <r>   19.4528    0.0000 </r>
       <r>   19.4528    0.0000 </r>
       <r>   19.5447    0.0000 </r>
       <r>   19.5447    0.0000 </r>
       <r>   19.5447    0.0000 </r>
       <r>   19.5447    0.0000 </r>
       <r>   19.5447    0.0000 </r>
       <r>   19.5447    0.0000 </r>
       <r>   19.5447    0.0000 </r>
       <r>   19.5447    0.0000 </r>
       <r>   23.1621    0.0000 </r>
       <r>   23.1621    0.0000 </r>
       <r>   23.1621    0.0000 </r>
       <r>   23.1621    0.0000 </r>
       <r>   23.3948    0.0000 </r>
       <r>   23.3948    0.0000 </r>
       <r>   23.3948    0.0000 </r>
       <r>   23.3948    0.0000 </r>
      </set>
      <set comment="kpoint 42">
       <r>    3.2825    1.0000 </r>
       <r>    3.2825    1.0000 </r>
       <r>    3.4248    1.0000 </r>
       <r>    3.4248    1.0000 </r>
       <r>    3.6506    1.0000 </r>
       <r>    3.6506    1.0000 </r>
       <r>    3.7926    1.0000 </r>
       <r>    3.7926    1.0000 </r>
       <r>   19.2416    0.0000 </r>
       <r>   19.2416    0.0000 </r>
       <r>   19.2417    0.0000 </r>
       <r>   19.2417    0.0000 </r>
       <r>   19.2895    0.0000 </r>
       <r>   19.2895    0.0000 </r>
       <r>   19.4082    0.0000 </r>
       <r>   19.4082    0.0000 </r>
       <r>   19.5713    0.0000 </r>
       <r>   19.5713    0.0000 </r>
       <r>   19.7134    0.0000 </r>
       <r>   19.7134    0.0000 </r>
       <r>   19.7196    0.0000 </r>
       <r>   19.7196    0.0000 </r>
       <r>   19.7331    0.0000 </r>
       <r>   19.7331    0.0000 </r>
       <r>   23.1539    0.0000 </r>
[...]
       <r>   27.1824    0.0000 </r>
       <r>   29.9131    0.0000 </r>
       <r>   32.5510    0.0000 </r>
       <r>   32.5513    0.0000 </r>
       <r>   32.6806    0.0000 </r>
      </set>
      <set comment="kpoint 98">
       <r>   -3.0401    1.0000 </r>
       <r>    4.3166    1.0000 </r>
       <r>    4.8844    1.0000 </r>
       <r>    4.8844    1.0000 </r>
       <r>    6.7974    0.9314 </r>
       <r>    6.7974    0.9314 </r>
       <r>    7.3590   -0.0043 </r>
       <r>   11.9189   -0.0000 </r>
       <r>   11.9189   -0.0000 </r>
       <r>   12.5150    0.0000 </r>
       <r>   13.4837    0.0000 </r>
       <r>   13.4837    0.0000 </r>
       <r>   13.6977    0.0000 </r>
       <r>   14.3377    0.0000 </r>
       <r>   14.8129    0.0000 </r>
       <r>   14.8129    0.0000 </r>
       <r>   17.4457    0.0000 </r>
       <r>   17.7705    0.0000 </r>
       <r>   17.7705    0.0000 </r>
       <r>   19.2859    0.0000 </r>
       <r>   20.1012    0.0000 </r>
       <r>   20.5588    0.0000 </r>
       <r>   22.2782    0.0000 </r>
       <r>   22.8522    0.0000 </r>
       <r>   22.9159    0.0000 </r>
       <r>   25.3886    0.0000 </r>
       <r>   26.8499    0.0000 </r>
       <r>   27.4230    0.0000 </r>
       <r>   30.0995    0.0000 </r>
       <r>   33.0172    0.0000 </r>
       <r>   33.1087    0.0000 </r>
       <r>   33.2361    0.0000 </r>
      </set>
      <set comment="kpoint 99">
       <r>   -3.1037    1.0000 </r>
       <r>    4.8252    1.0000 </r>
       <r>    5.0311    1.0000 </r>
       <r>    5.0311    1.0000 </r>
       <r>    6.5326    1.0094 </r>
       <r>    6.5326    1.0094 </r>
       <r>    6.7369    1.0160 </r>
       <r>   12.6988    0.0000 </r>
       <r>   12.6988    0.0000 </r>
       <r>   12.9782    0.0000 </r>
       <r>   13.5857    0.0000 </r>
       <r>   13.5857    0.0000 </r>
       <r>   13.6433    0.0000 </r>
       <r>   13.9414    0.0000 </r>
       <r>   14.1877    0.0000 </r>
       <r>   14.1877    0.0000 </r>
       <r>   17.2091    0.0000 </r>
       <r>   17.2974    0.0000 </r>
       <r>   17.2974    0.0000 </r>
       <r>   20.2259    0.0000 </r>
       <r>   20.5222    0.0000 </r>
       <r>   20.6839    0.0000 </r>
       <r>   22.1904    0.0000 </r>
       <r>   22.3979    0.0000 </r>
       <r>   22.4662    0.0000 </r>
       <r>   24.7360    0.0000 </r>
       <r>   27.4337    0.0000 </r>
       <r>   27.5941    0.0000 </r>
       <r>   30.2580    0.0000 </r>
       <r>   32.7786    0.0000 </r>
       <r>   32.8061    0.0000 </r>
       <r>   32.9934    0.0000 </r>
      </set>
      <set comment="kpoint 100">
       <r>   -3.1249    1.0000 </r>
       <r>    5.0941    1.0000 </r>
       <r>    5.0941    1.0000 </r>
       <r>    5.0941    1.0000 </r>
       <r>    6.4278    1.0013 </r>
       <r>    6.4278    1.0013 </r>
       <r>    6.4278    1.0013 </r>
       <r>   13.3143    0.0000 </r>
       <r>   13.3143    0.0000 </r>
       <r>   13.3143    0.0000 </r>
       <r>   13.6251    0.0000 </r>
       <r>   13.6251    0.0000 </r>
       <r>   13.6251    0.0000 </r>
       <r>   13.6251    0.0000 </r>
       <r>   13.6251    0.0000 </r>
       <r>   13.6251    0.0000 </r>
       <r>   17.1251    0.0000 </r>
       <r>   17.1251    0.0000 </r>
       <r>   17.1251    0.0000 </r>
       <r>   20.7289    0.0000 </r>
       <r>   20.7289    0.0000 </r>
       <r>   20.7289    0.0000 </r>
       <r>   22.1585    0.0000 </r>
       <r>   22.1585    0.0000 </r>
       <r>   22.1585    0.0000 </r>
       <r>   24.5077    0.0000 </r>
       <r>   27.6565    0.0000 </r>
       <r>   27.6565    0.0000 </r>
       <r>   30.3347    0.0000 </r>
       <r>   32.7003    0.0000 </r>
       <r>   32.7003    0.0000 </r>
       <r>   32.7004    0.0000 </r>
      </set>
     </set>
    </set>
   </array>
  </eigenvalues>
  <separator name="orbital magnetization" >
   <v name="MAGDIPOLOUT">      0.00000000      0.00000000      0.00000000</v>
  </separator>
  <dos>
   <i name="efermi">      6.92266277 </i>
   <total>
    <array>
     <dimension dim="1">gridpoints</dimension>
     <dimension dim="2">spin</dimension>
     <field>energy</field>
     <field>total</field>
     <field>integrated</field>
     <set>
      <set comment="spin 1">
       <r>    -5.1249     0.0000     0.0000 </r>
       <r>    -4.9901     0.0000     0.0000 </r>
       <r>    -4.8553    -0.0000    -0.0000 </r>
       <r>    -4.7205    -0.0000    -0.0000 </r>
       <r>    -4.5857    -0.0000    -0.0000 </r>
       <r>    -4.4509    -0.0000    -0.0000 </r>
       <r>    -4.3160    -0.0000    -0.0000 </r>
       <r>    -4.1812    -0.0000    -0.0000 </r>
       <r>    -4.0464    -0.0000    -0.0000 </r>
       <r>    -3.9116    -0.0000    -0.0000 </r>
       <r>    -3.7768    -0.0000    -0.0000 </r>
       <r>    -3.6420    -0.0006    -0.0001 </r>
       <r>    -3.5072    -0.0093    -0.0013 </r>
       <r>    -3.3724    -0.0357    -0.0062 </r>
       <r>    -3.2376     0.0901     0.0060 </r>
       <r>    -3.1028     0.5977     0.0866 </r>
       <r>    -2.9680     0.8549     0.2018 </r>
       <r>    -2.8332     0.5854     0.2807 </r>
       <r>    -2.6984     0.3846     0.3326 </r>
       <r>    -2.5636     0.3242     0.3763 </r>
       <r>    -2.4288     0.2909     0.4155 </r>
       <r>    -2.2940     0.2650     0.4512 </r>
       <r>    -2.1592     0.2439     0.4841 </r>
       <r>    -2.0244     0.2299     0.5151 </r>
       <r>    -1.8896     0.2121     0.5437 </r>
       <r>    -1.7548     0.2056     0.5714 </r>
       <r>    -1.6199     0.1949     0.5976 </r>
       <r>    -1.4851     0.1804     0.6220 </r>
       <r>    -1.3503     0.1825     0.6466 </r>
       <r>    -1.2155     0.1776     0.6705 </r>
       <r>    -1.0807     0.1460     0.6902 </r>
       <r>    -0.9459     0.1810     0.7146 </r>
       <r>    -0.8111     0.1555     0.7356 </r>
       <r>    -0.6763     0.1316     0.7533 </r>
       <r>    -0.5415     0.1534     0.7740 </r>
       <r>    -0.4067     0.1303     0.7915 </r>
       <r>    -0.2719     0.0924     0.8040 </r>
       <r>    -0.1371     0.4855     0.8694 </r>
       <r>    -0.0023     1.4640     1.0668 </r>
       <r>     0.1325     1.7120     1.2976 </r>
       <r>     0.2673     1.1726     1.4556 </r>
       <r>     0.4021     0.8737     1.5734 </r>
       <r>     0.5369     0.8264     1.6848 </r>
       <r>     0.6717     0.6904     1.7779 </r>
       <r>     0.8065     0.6014     1.8590 </r>
       <r>     0.9413     0.6889     1.9518 </r>
       <r>     1.0762     0.6847     2.0441 </r>
       <r>     1.2110     0.6678     2.1342 </r>
       <r>     1.3458     1.0141     2.2709 </r>
       <r>     1.4806     1.3179     2.4485 </r>
       <r>     1.6154     1.1437     2.6027 </r>
       <r>     1.7502     0.9042     2.7246 </r>
       <r>     1.8850     0.8034     2.8329 </r>
       <r>     2.0198     0.7429     2.9330 </r>
       <r>     2.1546     0.8886     3.0528 </r>
       <r>     2.2894     1.0694     3.1970 </r>
       <r>     2.4242     0.9093     3.3196 </r>
       <r>     2.5590     0.6354     3.4052 </r>
       <r>     2.6938     0.8215     3.5160 </r>
       <r>     2.8286     1.9049     3.7728 </r>
       <r>     2.9634     2.3273     4.0865 </r>
       <r>     3.0982     1.7406     4.3211 </r>
       <r>     3.2330     1.4086     4.5110 </r>
       <r>     3.3678     1.8402     4.7591 </r>
       <r>     3.5026     2.6529     5.1167 </r>
       <r>     3.6374     3.1629     5.5431 </r>
       <r>     3.7722     3.3311     5.9921 </r>
       <r>     3.9071     2.7218     6.3590 </r>
       <r>     4.0419     2.2197     6.6583 </r>
       <r>     4.1767     2.7639     7.0309 </r>
       <r>     4.3115     4.0957     7.5830 </r>
       <r>     4.4463     4.5566     8.1972 </r>
       <r>     4.5811     3.6105     8.6839 </r>
       <r>     4.7159     2.6072     9.0354 </r>
       <r>     4.8507     2.0079     9.3061 </r>
       <r>     4.9855     1.9360     9.5671 </r>
       <r>     5.1203     2.3403     9.8825 </r>
       <r>     5.2551     1.6595    10.1063 </r>
       <r>     5.3899     0.8261    10.2176 </r>
       <r>     5.5247     0.9213    10.3418 </r>
       <r>     5.6595     1.0605    10.4848 </r>
       <r>     5.7943     0.8737    10.6025 </r>
       <r>     5.9291     0.7204    10.6997 </r>
       <r>     6.0639     0.8385    10.8127 </r>
       <r>     6.1987     0.7833    10.9183 </r>
       <r>     6.3335     0.9062    11.0404 </r>
       <r>     6.4683     1.9405    11.3020 </r>
       <r>     6.6032     2.1921    11.5975 </r>
       <r>     6.7380     1.4180    11.7887 </r>
       <r>     6.8728     1.0983    11.9368 </r>
       <r>     7.0076     1.3268    12.1156 </r>
       <r>     7.1424     1.0905    12.2626 </r>
       <r>     7.2772     0.7622    12.3654 </r>
       <r>     7.4120     1.0419    12.5058 </r>
       <r>     7.5468     1.1775    12.6646 </r>
       <r>     7.6816     0.9206    12.7887 </r>
       <r>     7.8164     0.6970    12.8826 </r>
       <r>     7.9512     0.9708    13.0135 </r>
       <r>     8.0860     1.2582    13.1831 </r>
       <r>     8.2208     1.0011    13.3181 </r>
       <r>     8.3556     0.5941    13.3981 </r>
       <r>     8.4904     1.1357    13.5512 </r>
       <r>     8.6252     2.2842    13.8592 </r>
       <r>     8.7600     2.3827    14.1804 </r>
       <r>     8.8948     1.6687    14.4053 </r>
       <r>     9.0296     0.9980    14.5398 </r>
       <r>     9.1644     0.8057    14.6485 </r>
       <r>     9.2993     1.1146    14.7987 </r>
       <r>     9.4341     1.1994    14.9604 </r>
       <r>     9.5689     1.1598    15.1167 </r>
       <r>     9.7037     0.9733    15.2480 </r>
       <r>     9.8385     0.7808    15.3532 </r>
       <r>     9.9733     0.9207    15.4773 </r>
       <r>    10.1081     0.9389    15.6039 </r>
       <r>    10.2429     0.7808    15.7092 </r>
       <r>    10.3777     0.6935    15.8026 </r>
       <r>    10.5125     0.6677    15.8927 </r>
       <r>    10.6473     0.8460    16.0067 </r>
       <r>    10.7821     1.3497    16.1886 </r>
       <r>    10.9169     1.3753    16.3740 </r>
       <r>    11.0517     0.9571    16.5031 </r>
       <r>    11.1865     1.1437    16.6572 </r>
       <r>    11.3213     1.4443    16.8519 </r>
       <r>    11.4561     1.0780    16.9973 </r>
       <r>    11.5909     0.5761    17.0749 </r>
       <r>    11.7257     0.2991    17.1152 </r>
       <r>    11.8605     0.5030    17.1830 </r>
       <r>    11.9953     1.0370    17.3228 </r>
       <r>    12.1302     1.2580    17.4924 </r>
       <r>    12.2650     1.0314    17.6315 </r>
       <r>    12.3998     0.6452    17.7184 </r>
       <r>    12.5346     0.5177    17.7882 </r>
       <r>    12.6694     0.6675    17.8782 </r>
       <r>    12.8042     0.9686    18.0088 </r>
       <r>    12.9390     2.3192    18.3214 </r>
       <r>    13.0738     3.7118    18.8218 </r>
       <r>    13.2086     2.9286    19.2166 </r>
       <r>    13.3434     1.9748    19.4828 </r>
       <r>    13.4782     2.1437    19.7718 </r>
       <r>    13.6130     3.6526    20.2642 </r>
       <r>    13.7478     4.3425    20.8496 </r>
       <r>    13.8826     2.8033    21.2275 </r>
       <r>    14.0174     2.1615    21.5189 </r>
       <r>    14.1522     2.2293    21.8194 </r>
       <r>    14.2870     2.0559    22.0965 </r>
       <r>    14.4218     2.2686    22.4023 </r>
       <r>    14.5566     2.2085    22.7001 </r>
       <r>    14.6914     1.8653    22.9515 </r>
       <r>    14.8263     2.0758    23.2313 </r>
       <r>    14.9611     2.1322    23.5188 </r>
       <r>    15.0959     2.0240    23.7916 </r>
       <r>    15.2307     2.0653    24.0700 </r>
       <r>    15.3655     2.0119    24.3412 </r>
       <r>    15.5003     2.2437    24.6437 </r>
       <r>    15.6351     1.8498    24.8931 </r>
       <r>    15.7699     1.6365    25.1137 </r>
       <r>    15.9047     1.9280    25.3736 </r>
       <r>    16.0395     2.0758    25.6534 </r>
       <r>    16.1743     2.1111    25.9380 </r>
       <r>    16.3091     2.4481    26.2680 </r>
       <r>    16.4439     2.4372    26.5966 </r>
       <r>    16.5787     2.2653    26.9019 </r>
       <r>    16.7135     2.3138    27.2138 </r>
       <r>    16.8483     2.6044    27.5649 </r>
       <r>    16.9831     2.7035    27.9294 </r>
       <r>    17.1179     2.8783    28.3174 </r>
       <r>    17.2527     3.5572    28.7969 </r>
       <r>    17.3875     2.9546    29.1952 </r>
       <r>    17.5224     2.0552    29.4723 </r>
       <r>    17.6572     2.4062    29.7966 </r>
       <r>    17.7920     2.6537    30.1543 </r>
       <r>    17.9268     2.1793    30.4481 </r>
       <r>    18.0616     2.3075    30.7592 </r>
       <r>    18.1964     3.0494    31.1702 </r>
       <r>    18.3312     4.0002    31.7095 </r>
       <r>    18.4660     3.9694    32.2446 </r>
       <r>    18.6008     2.9335    32.6400 </r>
       <r>    18.7356     2.7760    33.0142 </r>
       <r>    18.8704     3.8921    33.5389 </r>
       <r>    19.0052     4.6379    34.1641 </r>
       <r>    19.1400     3.7978    34.6761 </r>
       <r>    19.2748     3.3437    35.1268 </r>
       <r>    19.4096     4.3558    35.7140 </r>
       <r>    19.5444     5.5660    36.4643 </r>
       <r>    19.6792     4.9504    37.1317 </r>
       <r>    19.8140     3.4919    37.6024 </r>
       <r>    19.9488     2.6053    37.9536 </r>
       <r>    20.0836     2.3851    38.2752 </r>
       <r>    20.2184     2.6670    38.6347 </r>
       <r>    20.3533     2.9647    39.0343 </r>
       <r>    20.4881     3.0222    39.4417 </r>
       <r>    20.6229     2.9278    39.8364 </r>
       <r>    20.7577     3.1967    40.2674 </r>
       <r>    20.8925     2.9389    40.6635 </r>
       <r>    21.0273     2.2919    40.9725 </r>
       <r>    21.1621     2.1790    41.2662 </r>
       <r>    21.2969     2.3762    41.5866 </r>
       <r>    21.4317     2.2533    41.8903 </r>
       <r>    21.5665     1.6091    42.1072 </r>
       <r>    21.7013     1.4389    42.3012 </r>
       <r>    21.8361     1.8193    42.5465 </r>
       <r>    21.9709     1.8413    42.7947 </r>
       <r>    22.1057     2.0498    43.0710 </r>
       <r>    22.2405     2.9336    43.4665 </r>
       <r>    22.3753     3.1393    43.8897 </r>
       <r>    22.5101     2.9353    44.2853 </r>
       <r>    22.6449     2.9273    44.6800 </r>
       <r>    22.7797     2.6012    45.0306 </r>
       <r>    22.9145     1.8806    45.2841 </r>
       <r>    23.0494     2.0952    45.5666 </r>
       <r>    23.1842     3.2806    46.0088 </r>
       <r>    23.3190     3.9609    46.5428 </r>
       <r>    23.4538     4.4693    47.1452 </r>
       <r>    23.5886     4.2610    47.7196 </r>
       <r>    23.7234     3.3769    48.1749 </r>
       <r>    23.8582     3.3577    48.6275 </r>
       <r>    23.9930     3.5986    49.1126 </r>
       <r>    24.1278     3.8760    49.6351 </r>
       <r>    24.2626     3.6805    50.1313 </r>
       <r>    24.3974     2.8193    50.5113 </r>
       <r>    24.5322     2.4378    50.8399 </r>
       <r>    24.6670     2.5600    51.1850 </r>
       <r>    24.8018     2.5412    51.5276 </r>
       <r>    24.9366     2.1355    51.8155 </r>
       <r>    25.0714     2.0249    52.0884 </r>
       <r>    25.2062     2.7884    52.4643 </r>
       <r>    25.3410     2.8196    52.8444 </r>
       <r>    25.4758     2.1457    53.1337 </r>
       <r>    25.6106     2.1680    53.4259 </r>
       <r>    25.7455     2.4069    53.7504 </r>
       <r>    25.8803     1.9245    54.0098 </r>
       <r>    26.0151     1.8431    54.2583 </r>
       <r>    26.1499     2.3009    54.5685 </r>
       <r>    26.2847     3.0266    54.9765 </r>
       <r>    26.4195     3.9552    55.5096 </r>
       <r>    26.5543     3.4827    55.9791 </r>
       <r>    26.6891     2.6062    56.3305 </r>
       <r>    26.8239     2.1008    56.6137 </r>
       <r>    26.9587     1.7970    56.8559 </r>
       <r>    27.0935     2.3383    57.1711 </r>
       <r>    27.2283     2.6622    57.5300 </r>
       <r>    27.3631     2.2661    57.8355 </r>
       <r>    27.4979     2.2720    58.1418 </r>
       <r>    27.6327     2.9645    58.5414 </r>
       <r>    27.7675     3.1765    58.9696 </r>
       <r>    27.9023     3.0418    59.3796 </r>
       <r>    28.0371     3.3244    59.8278 </r>
       <r>    28.1719     3.6843    60.3244 </r>
       <r>    28.3067     3.7773    60.8337 </r>
       <r>    28.4415     2.7677    61.2068 </r>
       <r>    28.5764     1.4231    61.3986 </r>
       <r>    28.7112     0.6698    61.4889 </r>
       <r>    28.8460     0.5105    61.5577 </r>
       <r>    28.9808     0.4855    61.6231 </r>
       <r>    29.1156     0.5925    61.7030 </r>
       <r>    29.2504     0.7381    61.8025 </r>
       <r>    29.3852     0.7290    61.9008 </r>
       <r>    29.5200     0.6208    61.9845 </r>
       <r>    29.6548     0.4171    62.0407 </r>
       <r>    29.7896     0.3678    62.0903 </r>
       <r>    29.9244     0.4461    62.1504 </r>
       <r>    30.0592     0.8571    62.2660 </r>
       <r>    30.1940     1.2450    62.4338 </r>
       <r>    30.3288     1.0474    62.5750 </r>
       <r>    30.4636     0.5994    62.6558 </r>
       <r>    30.5984     0.3651    62.7050 </r>
       <r>    30.7332     0.4495    62.7656 </r>
       <r>    30.8680     0.6307    62.8506 </r>
       <r>    31.0028     0.6063    62.9324 </r>
       <r>    31.1376     0.4219    62.9893 </r>
       <r>    31.2725     0.1534    63.0099 </r>
       <r>    31.4073     0.0480    63.0164 </r>
       <r>    31.5421     0.1447    63.0359 </r>
       <r>    31.6769     0.3108    63.0778 </r>
       <r>    31.8117     0.3204    63.1210 </r>
       <r>    31.9465     0.3625    63.1699 </r>
       <r>    32.0813     0.2132    63.1986 </r>
       <r>    32.2161     0.0367    63.2035 </r>
       <r>    32.3509     0.1154    63.2191 </r>
       <r>    32.4857     0.2231    63.2492 </r>
       <r>    32.6205     0.6879    63.3419 </r>
       <r>    32.7553     1.5733    63.5540 </r>
       <r>    32.8901     1.4066    63.7436 </r>
       <r>    33.0249     0.6950    63.8373 </r>
       <r>    33.1597     0.5197    63.9074 </r>
       <r>    33.2945     0.4335    63.9658 </r>
       <r>    33.4293     0.2398    63.9981 </r>
       <r>    33.5641     0.0342    64.0027 </r>
       <r>    33.6989    -0.0158    64.0006 </r>
       <r>    33.8337    -0.0041    64.0000 </r>
       <r>    33.9686    -0.0003    64.0000 </r>
       <r>    34.1034    -0.0000    64.0000 </r>
       <r>    34.2382    -0.0000    64.0000 </r>
       <r>    34.3730    -0.0000    64.0000 </r>
       <r>    34.5078    -0.0000    64.0000 </r>
       <r>    34.6426    -0.0000    64.0000 </r>
       <r>    34.7774     0.0000    64.0000 </r>
       <r>    34.9122     0.0000    64.0000 </r>
       <r>    35.0470     0.0000    64.0000 </r>
       <r>    35.1818     0.0000    64.0000 </r>
       <r>    35.3166     0.0000    64.0000 </r>
      </set>
     </set>
    </array>
   </total>
  </dos>
 </calculation>
 <structure name="finalpos" >
  <crystal>
   <varray name="basis" >
    <v>       4.03892946       0.00000000       0.00000000 </v>
    <v>       0.00000000       4.03892946       0.00000000 </v>
    <v>       0.00000000       0.00000000       4.03892946 </v>
   </varray>
   <i name="volume">     65.88685923 </i>
   <varray name="rec_basis" >
    <v>       0.24759036       0.00000000       0.00000000 </v>
    <v>       0.00000000       0.24759036       0.00000000 </v>
    <v>       0.00000000       0.00000000       0.24759036 </v>
   </varray>
  </crystal>
  <varray name="positions" >
   <v>       0.00000000       0.00000000       0.00000000 </v>
   <v>       0.00000000       0.50000000       0.50000000 </v>
   <v>       0.50000000       0.00000000       0.50000000 </v>
   <v>       0.50000000       0.50000000       0.00000000 </v>
  </varray>
 </structure>
</modeling>
